2172
 Atoms. Timestep: 0
H 1.40424 6.74173 36.0263
H 2.48047 5.88959 36.9108
O 2.36215 6.67738 36.3063
H 0.885887 18.53 20.6073
H 1.91753 17.2998 20.9059
O 1.68706 18.2458 21.134
H 1.73798 13.0727 31.0453
H 2.83775 13.9434 30.2091
O 1.86174 13.8114 30.3826
H 4.00724 11.9282 10.6182
H 2.81092 12.9203 10.1167
O 3.16973 11.9877 10.0749
H 11.7854 5.11048 24.4686
H 11.8556 3.6049 25.0972
O 11.2869 4.421 24.9942
H 6.54197 11.983 17.8086
H 5.3413 12.2821 16.7429
O 6.16714 11.7443 16.9127
H 11.0765 21.5652 34.7419
H 10.4554 22.8712 33.9833
O 10.844 22.5328 34.8404
H 13.9177 24.1188 19.6842
H 15.0478 24.9974 18.8982
O 14.2043 24.4705 18.793
H 14.404 7.32786 12.8177
H 13.1788 6.35119 13.2777
O 13.6139 6.80399 12.4994
H 5.12677 1.1286 15.7404
H 5.06971 1.52794 17.3229
O 4.70621 0.914086 16.622
H 8.09496 20.2254 21.8276
H 9.58271 19.9562 22.4448
O 8.98334 20.639 22.027
H 9.66118 2.73244 11.8548
H 8.48728 1.8128 11.1892
O 9.08523 1.92497 11.9829
H 9.91027 23.6897 16.2844
H 9.83278 23.4587 17.8991
O 9.66934 23.0402 17.0057
H 15.44 1.95688 26.2981
H 15.9185 1.32445 27.7257
O 16.2104 1.85058 26.9268
H 7.99629 17.9846 25.5868
H 9.51231 17.3953 25.4412
O 8.9669 18.2245 25.5642
H 4.75259 13.5109 12.3333
H 3.56656 14.5271 11.8564
O 3.85612 13.5706 11.8941
H 12.5011 3.4276 14.127
H 11.9159 2.27069 13.134
O 11.8713 3.24078 13.3729
H 11.3446 6.92041 23.4165
H 9.84103 7.37843 22.9735
O 10.4051 7.05301 23.7325
H 17.7345 7.50051 36.0375
H 17.627 5.93268 36.4816
O 18.2548 6.69362 36.3174
H 7.81477 7.39338 27.5899
H 8.68777 6.0282 27.3874
O 8.59863 6.86863 27.9221
H 2.98483 19.5403 13.5799
H 2.06541 18.4528 12.7806
O 2.0566 19.3187 13.2809
H 4.40069 15.084 21.4954
H 5.11424 15.1793 22.9612
O 5.2359 14.8924 22.011
H 16.7036 3.03299 14.3042
H 18.3243 3.17815 14.1661
O 17.5518 3.21973 14.7999
H 13.0981 9.19153 32.0726
H 14.6865 9.45682 32.3436
O 13.7872 9.88836 32.2717
H 7.61749 5.94626 11.6649
H 8.75825 5.0429 12.4061
O 8.325 5.94358 12.3717
H 3.75902 5.10205 24.2359
H 4.72539 6.28855 23.6657
O 4.59754 5.29863 23.7277
H 3.0325 18.3646 9.54298
H 2.34851 16.9335 9.15467
O 2.16629 17.8855 9.40071
H 14.9354 7.57711 16.7181
H 14.9514 9.20496 16.8472
O 15.5201 8.38758 16.755
H 6.22171 16.9576 10.7385
H 6.95997 17.3735 12.1345
O 7.10518 17.0622 11.1953
H 12.6562 16.5537 19.1563
H 12.0165 17.9825 18.6913
O 12.8674 17.4782 18.839
H 3.43965 12.8754 24.1557
H 4.9033 13.1957 23.5061
O 4.02977 13.5936 23.7868
H 11.9164 3.37198 10.2746
H 10.727 4.48946 10.2178
O 11.1219 3.74385 10.7547
H 5.26027 2.52732 29.2423
H 6.53656 1.56727 29.5832
O 6.06253 2.41305 29.8283
H 14.4807 21.8129 13.34
H 14.3914 23.4406 13.2428
O 15.0031 22.6515 13.1852
H 9.98801 11.3518 22.8349
H 8.58825 11.0749 23.6292
O 9.30803 11.7464 23.453
H 14.6376 4.47634 14.692
H 14.5021 5.99343 15.281
O 14.8515 5.07452 15.4644
H 12.9229 8.54509 15.947
H 11.7299 8.86324 14.8781
O 11.9441 8.72312 15.8449
H 17.2884 23.1363 22.0676
H 18.0438 21.9248 22.8605
O 17.3229 22.1461 22.2036
H 16.2765 15.4832 28.7626
H 16.3989 14.7984 27.2852
O 16.8172 15.446 27.9221
H 10.2746 11.6914 9.95598
H 10.9525 10.7296 11.0883
O 10.2883 10.7689 10.3418
H 10.7716 14.6429 12.4657
H 9.45272 15.3098 11.7711
O 10.1219 15.402 12.5085
H 10.262 11.0414 17.666
H 11.6125 10.2076 17.2817
O 10.7655 10.1899 17.8131
H 15.7924 11.1143 31.5577
H 16.8353 11.947 32.499
O 16.7433 11.1834 31.8596
H 15.0035 24.1845 15.132
H 13.6036 24.8285 14.5915
O 14.4293 25.0032 15.128
H 12.3051 13.1304 32.3216
H 12.2536 12.5591 33.8506
O 11.7033 12.8833 33.0811
H 9.12692 3.5935 30.8355
H 8.34787 2.5807 29.8186
O 8.74121 2.67652 30.733
H 11.7219 23.9658 22.8806
H 12.4663 22.6868 23.5712
O 11.7081 22.9713 22.9845
H 13.1021 22.4609 10.1122
H 14.7096 22.5221 9.83089
O 13.9926 22.0935 10.3808
H 14.1856 1.99545 13.4399
H 13.6638 0.899655 14.5325
O 13.9392 1.85163 14.3984
H 17.3213 7.59357 28.9208
H 16.6387 6.88251 27.6187
O 17.0369 7.72928 27.9717
H 7.56255 24.1962 32.5437
H 5.9724 23.8263 32.505
O 6.76255 23.9721 33.1004
H 5.00865 5.65417 20.3906
H 6.47547 4.93695 20.3615
O 5.87166 5.54005 20.8828
H 18.0197 4.16143 21.6343
H 17.6196 5.54851 22.3976
O 18.3298 4.85335 22.2863
H 8.1212 22.7647 36.9032
H 9.71201 22.3997 36.8495
O 8.78686 22.02 36.8545
H 9.49953 3.04164 33.3798
H 9.3669 4.66865 33.3343
O 9.67564 3.86025 32.833
H 13.5163 19.949 17.8551
H 14.366 21.3189 18.1166
O 13.4481 20.9284 18.0453
H 5.05206 24.0169 9.06135
H 4.50814 23.7854 10.5837
O 4.73009 23.3354 9.71861
H 12.546 18.808 27.1653
H 11.5147 19.9063 27.7954
O 12.4647 19.5943 27.7778
H 6.95411 9.99719 24.9192
H 6.13659 8.64446 25.3298
O 6.8225 9.02789 24.7112
H 1.18598 3.89218 36.3486
H 2.26074 4.57155 35.3238
O 1.28974 4.40681 35.4974
H 11.5257 18.8187 29.5742
H 11.9526 20.371 29.8482
O 11.7102 19.5023 30.2804
H 7.07829 2.72616 33.6612
H 7.29873 4.33381 33.4776
O 6.95997 3.50086 33.0399
H 6.04902 11.8671 27.9628
H 5.85363 13.0107 29.112
O 6.50598 12.3826 28.6878
H 12.4665 12.0219 36.5613
H 13.4897 12.7506 35.5178
O 13.1763 12.72 36.467
H 3.99188 5.52191 17.0209
H 4.06236 6.59401 15.791
O 3.47389 5.95033 16.2804
H 3.95921 8.74036 25.4908
H 3.34724 7.26981 25.8511
O 3.45512 7.95522 25.1309
H 13.1472 1.8986 22.4686
H 11.5289 1.67931 22.4585
O 12.4136 1.22632 22.5691
H 18.2445 2.78495 32.1923
H 17.4427 1.4247 32.6091
O 18.3282 1.79833 32.3326
H 16.8111 10.2156 14.0623
H 16.1547 8.94079 14.8437
O 16.0671 9.54746 14.0536
H 10.5222 0.917248 29.8318
H 10.3041 0.91879 31.4502
O 9.84123 0.898554 30.564
H 15.7355 24.2976 33.8386
H 17.1055 23.4149 33.9438
O 16.2636 23.6754 34.4166
H 2.62963 5.43988 13.2373
H 4.25616 5.56555 13.311
O 3.49323 5.08036 12.8836
H 9.76642 20.973 15.5878
H 11.318 20.5217 15.3517
O 10.7189 21.2762 15.6198
H 8.49588 15.6433 9.37437
H 6.89463 15.3226 9.3696
O 7.58243 16.0454 9.43772
H 4.32636 7.65949 12.0546
H 2.71815 7.82718 11.8257
O 3.51442 7.25276 11.6357
H 14.0221 13.1075 21.7228
H 12.6156 12.2779 21.6986
O 13.6101 12.1973 21.7665
H 17.4152 18.9493 9.45971
H 18.1881 20.3828 9.58028
O 18.308 19.3903 9.55245
H 6.20428 14.7624 17.8555
H 7.49678 13.9665 17.2531
O 6.49762 14.002 17.2759
H 3.24718 4.55038 30.9157
H 3.12781 3.11172 30.1523
O 3.45721 3.57445 30.9754
H 6.44231 16.7696 18.5811
H 5.83798 18.1433 17.9373
O 6.05367 17.6671 18.7898
H 3.5844 14.5883 36.8406
H 2.66964 14.2136 35.5407
O 3.16674 13.8406 36.3242
H 5.30682 2.60635 36.3881
H 5.59845 4.17608 36.7312
O 4.90803 3.45267 36.7414
H 7.4603 14.2717 34.6158
H 8.92126 15.0002 34.5739
O 8.44641 14.1205 34.5463
H 11.3261 13.3575 16.7309
H 12.0871 14.4734 17.6489
O 11.2018 14.1772 17.2902
H 2.76814 22.4255 28.7015
H 1.33415 21.6564 28.8392
O 1.81879 22.5158 29.0027
H 9.69898 14.4128 29.4591
H 10.1543 15.7946 30.2008
O 9.46913 15.0664 30.1803
H 14.1234 4.1361 12.1983
H 12.8361 4.96955 11.637
O 13.1561 4.07591 11.9519
H 4.98911 20.5232 14.9553
H 3.39646 20.7164 15.2602
O 4.26236 21.193 15.1081
H 8.59333 22.3947 11.7446
H 9.88856 21.653 11.0819
O 9.22796 22.3957 10.9717
H 3.15691 20.8448 23.4145
H 4.14137 22.0923 23.0383
O 3.25686 21.8397 23.4307
H 3.62976 14.2226 28.2998
H 2.90794 12.7663 28.4586
O 3.78256 13.2348 28.3333
H 2.0983 18.9347 34.807
H 1.60597 19.4203 36.2864
O 1.40484 18.8135 35.5174
H 4.8903 11.1789 12.8346
H 6.32331 11.7779 13.339
O 5.3304 11.843 13.4391
H 3.81814 16.7811 15.1557
H 3.74585 17.6039 13.747
O 4.15321 16.8191 14.2142
H 17.8535 3.04948 8.64849
H 16.9259 4.39274 8.69345
O 17.8642 4.04732 8.71436
H 15.5777 9.75456 19.1528
H 16.8954 9.48671 20.0795
O 16.2284 9.063 19.4665
H 3.91508 2.29832 10.3919
H 4.67747 2.89529 9.07686
O 3.86432 2.41068 9.39943
H 14.9368 11.328 29.598
H 16.0661 12.23 28.8377
O 15.2499 12.2599 29.4148
H 5.61558 9.14875 33.2129
H 5.1957 10.6842 32.8484
O 5.6749 10.103 33.5062
H 16.7517 6.36036 10.2839
H 18.1253 5.50916 10.5195
O 17.1275 5.45439 10.479
H 9.12336 16.4941 18.573
H 7.99643 15.3275 18.7621
O 8.44616 16.1068 19.1987
H 11.8448 4.33951 33.3043
H 12.3568 5.88514 33.4298
O 11.7311 5.19948 33.8019
H 6.10813 8.37266 19.1859
H 5.49272 7.67689 20.5291
O 5.97691 8.47574 20.172
H 12.741 5.61289 36.1146
H 13.5187 4.18242 35.9894
O 13.6376 5.17188 36.0728
H 11.9062 2.76972 35.2112
H 10.6696 3.79983 34.9344
O 11.6041 3.72047 35.2816
H 3.51138 16.0395 23.9737
H 3.38757 16.8238 22.5467
O 3.07577 16.033 23.0735
H 16.3399 20.4885 17.6106
H 16.972 19.4799 18.7286
O 16.1352 19.927 18.4124
H 15.5504 15.456 35.828
H 15.9878 13.9107 35.5323
O 15.6401 14.7538 35.1217
H 4.03667 3.14058 12.3316
H 5.28868 4.17049 12.1352
O 5.03335 3.22243 12.3252
H 5.30474 18.8271 10.5586
H 4.10184 18.589 11.6371
O 5.00319 18.9988 11.4965
H 5.41865 20.1967 36.9021
H 3.99301 20.9916 36.8521
O 4.73013 20.6014 36.3002
H 8.56719 4.91557 20.3501
H 8.327 5.76053 21.7267
O 9.01485 5.32874 21.1432
H 2.15171 11.511 17.4102
H 1.39454 12.9422 17.6234
O 2.2049 12.4045 17.8564
H 3.70071 18.438 23.8091
H 3.90684 18.9029 25.361
O 3.4512 18.2474 24.7586
H 2.55674 24.4204 30.4716
H 3.71791 24.5998 31.6057
O 2.74164 24.7005 31.4136
H 2.55893 23.0428 11.221
H 2.18744 24.395 12.058
O 2.19186 23.9706 11.1525
H 11.8754 21.7698 11.7196
H 12.6975 20.3596 11.6736
O 11.7903 20.7738 11.7482
H 6.8761 19.2475 33.1055
H 5.44272 18.7908 32.4701
O 6.13803 19.5095 32.4836
H 10.7837 8.02133 13.0603
H 10.6199 6.44236 13.4435
O 11.2701 7.19612 13.3475
H 2.69814 21.3081 19.4228
H 4.12973 20.6199 19.0436
O 3.63117 21.4843 19.1089
H 15.2374 12.8139 19.3779
H 14.905 11.5723 18.3704
O 15.2861 11.8219 19.2608
H 11.6955 15.404 14.1686
H 10.7126 15.2411 15.4625
O 10.7662 15.1842 14.4655
H 10.5144 9.57284 30.6906
H 11.2192 8.09977 30.7038
O 11.3864 9.08454 30.6548
H 1.98993 10.0411 12.5666
H 1.15159 11.1877 11.7608
O 1.19683 10.2136 11.9823
H 18.3224 23.4537 30.4653
H 17.5413 24.8829 30.3458
O 17.8561 24.0797 29.84
H 8.20673 17.0775 29.6768
H 9.58559 17.9499 29.7436
O 8.91631 17.526 29.1333
H 3.70412 18.3813 20.6284
H 3.77548 18.1822 19.0091
O 4.00453 17.774 19.8929
H 16.387 17.6464 12.1189
H 15.2298 16.5342 11.8177
O 15.4028 17.4692 12.1275
H 11.1158 16.7562 27.9685
H 10.9652 16.2536 26.4221
O 11.5785 16.6831 27.085
H 14.7648 19.7591 34.3644
H 14.3929 18.1689 34.3648
O 14.0166 19.0955 34.3632
H 12.0643 22.9885 14.279
H 12.2099 23.4029 15.8519
O 11.5688 23.1227 15.1373
H 0.930602 19.1833 30.7728
H 2.22061 18.6495 31.6201
O 1.25641 18.4858 31.4112
H 12.805 4.06973 20.4239
H 12.6228 2.45245 20.2897
O 12.1419 3.32131 20.4079
H 5.74367 14.6714 27.8201
H 7.18588 15.4368 27.8511
O 6.73557 14.5441 27.8281
H 15.2103 12.6854 26.5538
H 13.9099 11.872 27.1144
O 14.902 11.8411 26.9922
H 2.08586 24.7927 21.6451
H 2.60933 23.9006 22.9089
O 2.84348 24.2444 21.9994
H 14.6037 6.72711 25.4408
H 15.5585 7.97815 25.0048
O 15.5495 7.03594 25.3399
H 9.25673 21.7939 13.7444
H 10.8432 21.4582 13.5511
O 10.1062 22.0884 13.3064
H 11.2685 2.72645 28.0067
H 11.8732 1.23144 28.2639
O 11.151 1.75309 27.8095
H 7.87982 23.6099 28.2844
H 9.05363 23.8007 27.1652
O 8.48037 24.2718 27.8357
H 13.0784 6.59878 16.6876
H 12.0824 6.2926 15.4302
O 12.3343 6.01756 16.3582
H 14.6351 24.1055 24.3165
H 14.7197 22.4806 24.1772
O 14.4158 23.3235 23.733
H 13.1042 16.5642 34.6654
H 12.4315 17.771 33.7948
O 12.2506 16.9159 34.2808
H 2.62616 3.6838 33.4675
H 3.35273 2.22203 33.5137
O 2.52298 2.71341 33.2488
H 16.3324 16.9801 15.8461
H 15.7343 17.9647 17.0035
O 16.1701 17.9326 16.104
H 13.5691 9.5649 18.3709
H 12.7706 8.14045 18.3842
O 13.6735 8.5703 18.3724
H 13.05 10.3438 28.2454
H 11.7073 9.44886 28.497
O 12.2661 9.90604 27.805
H 13.9135 2.33245 27.6732
H 13.9779 0.899572 28.454
O 13.8381 1.34086 27.5675
H 15.1372 10.9734 36.0635
H 15.6974 9.68963 36.9032
O 15.2669 9.98185 36.0491
H 1.5247 17.6659 23.1391
H 1.89524 19.2457 22.9547
O 1.15912 18.5967 23.1474
H 2.3894 18.2427 27.6467
H 1.80378 18.1753 29.1696
O 2.42064 18.6645 28.5529
H 2.0883 17.5733 16.1646
H 2.07345 15.9446 16.0464
O 1.54638 16.748 16.3237
H 18.2383 7.86288 24.4458
H 17.4525 7.85221 25.8774
O 18.3225 7.66288 25.422
H 3.45329 14.8376 14.0589
H 2.23657 15.9196 13.9338
O 2.4689 14.9757 14.1686
H 8.95622 14.6331 26.8786
H 9.19142 15.978 27.7746
O 9.59797 15.1146 27.4756
H 12.1296 6.95415 10.9653
H 12.4596 6.08779 9.6209
O 11.7584 6.30696 10.2994
H 8.97943 0.898298 36.0633
H 10.2975 1.78925 36.4316
O 9.45543 1.38892 36.7932
H 16.9086 1.41158 18.8407
H 17.2968 1.97062 20.3252
O 17.6185 1.43447 19.5447
H 11.4124 10.8828 32.5652
H 10.5652 9.50289 32.7771
O 10.6413 10.4635 33.0446
H 2.68885 15.8539 34.0552
H 2.94201 17.2257 33.206
O 3.1383 16.7473 34.062
H 8.9995 5.49366 18.3885
H 10.0083 6.37366 19.3238
O 9.93326 5.56569 18.7393
H 4.28027 15.5465 17.7077
H 4.20416 17.0905 17.1815
O 4.78625 16.2807 17.2549
H 7.85611 12.1882 15.7804
H 9.48416 12.0902 15.6987
O 8.6325 11.974 15.1876
H 11.0324 16.4102 17.7293
H 9.9899 17.3271 16.8695
O 10.9482 17.0613 16.9749
H 17.5619 19.4579 35.5617
H 17.3761 19.9711 34.0225
O 17.8121 20.1659 34.9012
H 8.89259 5.14626 25.5035
H 7.30073 5.5079 25.4584
O 7.96955 4.7644 25.4556
H 7.55186 14.0873 14.9649
H 8.98212 14.1097 15.7528
O 8.54559 14.0709 14.8538
H 3.68524 7.67892 14.0414
H 2.07796 7.96762 14.053
O 2.89419 7.87038 14.6226
H 14.2132 11.7684 13.6753
H 15.3244 11.5227 14.8464
O 15.1919 11.7209 13.8752
H 5.60724 18.4029 27.422
H 7.04234 17.6241 27.3938
O 6.04926 17.5062 27.3974
H 1.67766 6.7775 18.1803
H 1.7829 8.36292 18.5574
O 2.21756 7.61092 18.0617
H 8.03706 18.2734 18.5511
H 7.04208 19.494 18.9835
O 7.99541 19.232 18.8331
H 9.29078 25 13.023
H 9.04469 24.275 14.4655
O 9.73476 24.6581 13.8513
H 0.897869 22.1215 16.3398
H 0.900335 20.4903 16.2627
O 1.47323 21.3097 16.2398
H 17.2265 3.70898 28.246
H 18.0437 4.17367 26.9106
O 17.1871 4.26846 27.418
H 15.7431 22.3153 28.3743
H 14.1689 22.1944 27.9568
O 14.8095 22.2347 28.7237
H 5.97666 22.2261 35.8877
H 4.82622 23.2177 36.4878
O 5.80091 23.1279 36.2828
H 12.0968 20.9703 9.04863
H 11.8883 19.3885 9.39721
O 12.4765 20.185 9.53789
H 14.042 25.0002 35.1209
H 12.8462 24.1877 35.8802
O 13.7064 24.0941 35.3788
H 12.437 9.21031 11.2132
H 12.9332 9.35801 12.762
O 12.4892 8.75298 12.101
H 15.0799 4.79279 26.0661
H 13.7065 3.91798 26.1903
O 14.1278 4.72087 25.7685
H 10.5386 16.4392 20.9944
H 10.0316 16.0115 22.4867
O 10.7947 15.9733 21.8415
H 8.56539 21.518 27.124
H 9.94595 20.9903 26.4295
O 9.47862 21.7853 26.8163
H 4.22899 22.38 17.0416
H 2.67241 22.4559 17.5296
O 3.32542 21.9598 16.9573
H 13.2889 19.0131 32.2027
H 13.6556 18.8104 30.6243
O 13.1272 18.4492 31.3928
H 6.5792 2.32546 13.4038
H 7.2278 3.65498 12.712
O 7.3279 2.66769 12.8359
H 8.16509 24.3167 25.3431
H 8.89909 25.0019 24.0552
O 8.14863 24.409 24.3474
H 12.6048 3.83252 23.0355
H 13.7737 4.63002 22.2203
O 12.8038 4.62882 22.4642
H 15.4412 22.1542 21.3393
H 14.1298 21.1957 21.1707
O 14.6016 22.0036 20.8173
H 3.87419 4.98289 10.831
H 2.39411 4.29282 10.8287
O 2.89015 5.16118 10.8276
H 7.42646 24.2426 35.5914
H 5.99449 24.7622 35.0029
O 6.93927 25.0237 35.2006
H 16.2945 23.0045 31.533
H 17.5493 22.0856 32.0309
O 16.5903 22.0736 31.7475
H 11.4305 7.81452 33.7912
H 10.4628 7.49933 35.0683
O 10.5031 7.56632 34.0713
H 12.7601 11.4933 18.4607
H 13.3724 11.0662 19.9131
O 12.6955 11.637 19.4483
H 16.1158 6.00791 18.7294
H 17.2039 6.28164 17.5428
O 16.3004 6.52678 17.8946
H 6.64397 5.7578 18.4717
H 7.59561 6.58328 19.5108
O 7.1124 6.6259 18.6363
H 17.5271 16.3081 14.1742
H 18.0961 14.8465 14.6289
O 18.324 15.7039 14.1673
H 14.306 23.8587 21.7171
H 13.3052 25.0889 22.1069
O 14.234 24.7305 22.2017
H 2.12523 11.9631 36.9039
H 2.23004 10.7568 35.8082
O 2.61909 11.6305 36.1005
H 8.1075 15.9248 25.4695
H 8.9222 15.2917 24.2037
O 8.01561 15.4441 24.5974
H 10.1475 10.722 20.8482
H 11.6015 10.0182 20.6084
O 11.0906 10.8762 20.5535
H 10.8591 10.3345 36.5498
H 11.7432 8.96281 36.6121
O 11.6864 9.91235 36.9207
H 4.35561 3.92606 15.3031
H 5.75355 4.59115 14.7832
O 4.92294 4.7495 15.3172
H 15.3528 10.5113 9.16863
H 15.199 12.0705 8.7082
O 15.1217 11.4345 9.47601
H 6.23005 9.69612 13.4298
H 4.75985 9.46768 14.1029
O 5.61499 9.02172 13.8384
H 11.0745 18.5931 23.4843
H 12.5183 18.5691 22.7216
O 12.0641 18.5249 23.6115
H 4.51337 13.7888 9.22522
H 5.53988 12.5197 9.27745
O 5.4757 13.517 9.23917
H 7.86947 14.7181 21.167
H 9.44939 14.3161 21.0717
O 8.7876 15.0579 20.963
H 11.5636 13.9946 21.1412
H 12.9583 14.7531 20.7586
O 12.1872 14.2298 20.3956
H 5.60903 3.06718 20.6099
H 4.70129 3.91217 21.6724
O 4.68699 3.19514 20.9754
H 1.12392 15.7763 31.7799
H 2.58724 16.3595 31.3492
O 2.06656 15.5305 31.5538
H 8.33585 6.18066 23.7749
H 7.4958 7.53489 23.4182
O 7.44207 6.54019 23.5065
H 1.34659 4.81843 21.2911
H 2.96758 5.01136 21.3359
O 2.22701 4.35044 21.214
H 9.93876 17.1061 33.5453
H 10.3065 18.6167 34.0451
O 9.99606 18.0659 33.2702
H 9.42566 1.93972 21.0852
H 10.1879 3.38145 21.1707
O 9.29627 2.9304 21.1292
H 3.18533 24.8983 26.4079
H 3.18865 24.4319 24.8429
O 3.64617 25.0009 25.5263
H 7.85067 18.7115 31.344
H 7.12305 20.0326 30.7178
O 7.2703 19.0501 30.6033
H 14.6516 10.3885 12.1688
H 16.1618 10.0644 11.6385
O 15.3567 9.68336 12.0932
H 15.0972 4.23194 31.0672
H 14.6968 2.94387 30.1466
O 14.5597 3.38938 31.0314
H 11.5623 13.5322 29.8565
H 12.7864 12.8565 29.0129
O 12.4693 13.1165 29.925
H 15.9104 2.34361 33.6934
H 16.556 3.75546 33.1868
O 16.1333 3.28154 33.9594
H 18.3173 19.6008 25.5624
H 18.2124 20.2316 24.0597
O 17.7269 19.712 24.7629
H 2.21903 2.34332 26.8627
H 1.36601 0.950817 26.8519
O 1.31601 1.93782 27.005
H 7.60652 23.4782 16.6902
H 6.85252 22.3322 17.5762
O 7.37726 23.1825 17.6176
H 9.70092 6.64322 10.1872
H 10.4889 8.06956 10.294
O 9.94744 7.47867 9.69592
H 18.3336 10.7436 30.5773
H 18.101 9.33344 29.7872
O 17.8616 9.86229 30.6015
H 8.49576 21.602 18.7294
H 9.71884 20.5335 18.5582
O 9.4137 21.4644 18.3572
H 12.2326 3.33326 18.3125
H 12.8528 4.80621 17.9769
O 12.0107 4.29412 18.1464
H 6.01081 6.30508 26.9972
H 5.17878 7.70949 27.044
O 5.44274 6.899 27.567
H 10.3451 6.39991 16.8717
H 10.0191 7.98215 17.1107
O 10.6947 7.33078 16.7653
H 16.3547 9.86168 24.2187
H 15.7565 10.5083 25.5938
O 16.513 10.5358 24.9402
H 6.99465 6.12469 14.0363
H 6.09765 7.23684 14.8271
O 6.46079 6.96437 13.9361
H 8.05248 11.039 26.9727
H 8.99037 10.8124 25.6552
O 8.81722 11.4048 26.4421
H 2.60878 9.97998 16.0728
H 3.9523 10.3179 16.9374
O 3.5989 9.85024 16.1272
H 8.73793 18.1176 15.0354
H 8.06015 19.6031 15.0049
O 8.92402 19.1002 15.0364
H 5.7849 11.1779 19.6217
H 4.61513 11.7208 18.6198
O 5.18997 11.9519 19.4048
H 14.638 19.8717 11.07
H 16.0891 19.7352 11.8066
O 15.3176 20.3464 11.6295
H 8.40208 1.4357 15.9977
H 7.25542 1.04175 14.9037
O 7.5939 0.871285 15.8291
H 7.57744 17.9808 36.9107
H 8.83801 19.0181 36.8692
O 7.84078 18.944 36.8563
H 5.49942 8.68289 22.3557
H 4.10646 8.17954 23.0435
O 4.55631 8.93704 22.5703
H 10.091 20.1374 8.65254
H 8.46005 20.0575 8.67496
O 9.28905 19.98 9.22892
H 17.7418 7.52769 13.7774
H 17.8734 5.90038 13.74
O 18.3228 6.76159 13.5024
H 9.6564 17.7951 11.7459
H 10.2758 18.6428 10.4951
O 9.65775 18.6802 11.2805
H 15.9255 9.34474 30.013
H 15.553 7.75477 30.0238
O 15.5441 8.59916 30.5596
H 0.902998 15.6778 21.7187
H 0.898429 15.5993 20.0876
O 1.36405 15.2943 20.9184
H 10.2894 15.3768 32.4281
H 10.5339 13.9792 31.6196
O 10.3499 14.3825 32.516
H 7.21354 15.8457 16.3888
H 7.6568 17.3923 16.6686
O 7.75417 16.4463 16.978
H 10.4295 0.899851 17.2438
H 11.6177 0.899471 18.3641
O 11.3543 1.21769 17.4534
H 16.6941 23.1424 24.0554
H 17.0516 24.6804 23.6389
O 16.7008 24.0924 24.3677
H 8.70648 8.73289 31.3445
H 8.69241 7.23366 31.9917
O 8.89573 7.76648 31.1702
H 2.72965 20.5795 27.7241
H 3.97159 20.5343 26.6647
O 3.69749 20.7932 27.591
H 16.8927 22.6869 36.2979
H 18.2356 22.0961 35.5806
O 17.2359 22.0699 35.5896
H 16.0645 10.8172 22.2857
H 17.6665 11.0687 22.0925
O 16.9368 10.3858 22.0551
H 1.97376 13.3102 20.6827
H 2.65894 14.039 21.9735
O 2.79255 13.7764 21.0178
H 4.51307 9.24775 29.3007
H 5.97912 8.75164 29.8217
O 5.23103 8.5611 29.1859
H 5.6747 24.9967 20.2108
H 6.82197 23.926 20.6627
O 6.60741 24.8971 20.5575
H 16.2558 4.40217 12.4316
H 15.9714 5.94749 12.8765
O 15.8718 5.27831 12.14
H 11.1703 9.64279 22.7774
H 9.92161 9.49066 23.8188
O 10.8943 9.70803 23.7364
H 16.5055 21.0901 25.808
H 15.1942 22.0019 26.1483
O 15.5069 21.0964 25.8614
H 4.48733 17.0687 26.1098
H 3.71339 16.6292 27.479
O 3.6119 16.7766 26.4951
H 3.39584 0.899335 30.1828
H 4.1014 0.906437 28.71
O 3.32918 1.24604 29.2471
H 16.9069 10.9476 16.1702
H 18.0912 11.1635 17.2738
O 17.1736 10.7959 17.1221
H 16.8263 22.2197 10.6513
H 16.1646 23.7008 10.8396
O 17.0221 23.1968 10.7354
H 18.3222 9.3545 27.7141
H 17.3859 10.4131 26.8958
O 17.627 10.0678 27.8029
H 13.6024 14.4734 9.54225
H 15.1586 14.1992 9.95469
O 14.4345 14.8877 9.91127
H 8.08516 13.1169 22.4755
H 7.09559 13.9778 23.4483
O 8.04827 13.7444 23.2532
H 14.5638 18.902 28.7296
H 13.9089 20.3541 29.089
O 14.6807 19.8921 28.652
H 15.0709 19.4459 13.8477
H 13.5875 19.25 14.502
O 14.2641 19.9212 14.1988
H 6.13373 16.7812 14.8734
H 6.8121 18.1195 14.2287
O 6.15626 17.3807 14.0733
H 2.69801 6.75576 22.4549
H 2.8497 7.02443 20.8513
O 2.2825 7.19334 21.6574
H 17.7639 4.77801 19.0924
H 18.1917 3.31392 18.5091
O 17.9132 3.81742 19.3271
H 9.17976 17.1295 31.6157
H 7.64512 16.5713 31.6243
O 8.60984 16.3078 31.6212
H 8.926 6.13665 29.8627
H 8.86037 4.70214 29.085
O 9.43005 5.50119 29.2777
H 8.38811 12.4867 20.4536
H 6.98887 13.0348 19.8144
O 7.98611 13.0934 19.7677
H 5.09217 20.1218 23.1333
H 6.11694 21.3565 22.8299
O 5.74846 20.7571 23.5405
H 13.6625 9.26169 29.9303
H 12.9872 7.98165 29.1738
O 13.2673 8.35213 30.0595
H 11.6076 14.278 8.90084
H 11.0075 14.9262 10.2744
O 11.4218 14.1111 9.86921
H 11.7532 2.91747 16.2114
H 10.9082 2.29069 14.9624
O 10.8666 2.55278 15.9267
H 12.946 16.1838 10.5938
H 11.8471 16.3254 11.7935
O 12.8049 16.4664 11.5427
H 16.4891 11.5466 34.5171
H 15.9345 10.1199 33.9481
O 16.7422 10.6094 34.2769
H 2.82195 1.44412 35.9533
H 2.9335 2.76756 36.9035
O 2.82523 2.44412 35.9634
H 10.1321 22.1582 31.7281
H 10.1166 20.7793 30.8533
O 10.6622 21.5769 31.1107
H 5.7617 14.456 24.9795
H 6.20079 15.6278 26.0288
O 6.43608 14.7256 25.667
H 11.8261 10.7259 34.7404
H 13.3788 10.2853 34.9889
O 12.7085 10.5607 34.2997
H 6.85542 16.235 22.5409
H 8.19836 16.934 23.153
O 7.84352 16.1387 22.6614
H 12.433 5.57012 31.3815
H 13.6903 6.50169 30.9142
O 13.4147 5.72928 31.4866
H 7.95453 13.6448 11.6014
H 9.28241 13.5515 10.6554
O 8.29866 13.731 10.6664
H 13.8734 9.52311 21.5243
H 13.2409 10.3949 22.7519
O 14.066 9.94464 22.4105
H 1.73509 6.49077 28.2415
H 0.911523 7.89992 28.2953
O 0.896992 6.93513 28.5581
H 4.77762 24.4604 14.2276
H 4.73717 23.5057 12.9033
O 4.42299 23.6061 13.8474
H 9.6989 8.15797 29.2709
H 10.8597 7.06236 28.9258
O 10.3347 7.83535 28.5695
H 17.0964 21.4562 15.2734
H 15.5753 21.9879 15.5387
O 16.156 21.4434 14.9334
H 3.41799 13.1825 26.2256
H 3.32443 14.6522 25.5199
O 3.79034 14.1107 26.2198
H 12.0429 23.4616 19.0656
H 11.3497 21.9886 18.9367
O 12.1866 22.4787 19.1809
H 11.2601 13.643 27.7912
H 9.7622 13.0099 27.9409
O 10.4921 13.2367 27.296
H 9.0783 7.80964 11.8052
H 7.76856 8.39596 12.5847
O 8.46181 8.59237 11.8912
H 15.22 9.8472 27.5007
H 14.0776 9.21138 26.5222
O 14.5338 9.12568 27.408
H 12.1157 19.8374 33.7243
H 12.1088 20.7296 32.3566
O 11.5372 20.3257 33.0709
H 4.43198 3.0136 23.679
H 3.56991 1.68321 24.0711
O 4.38119 2.01862 23.5921
H 3.60759 14.1713 33.2114
H 4.26318 15.0059 31.9702
O 3.90046 14.119 32.2567
H 14.0449 4.71137 29.2708
H 12.5404 4.2899 29.7459
O 13.1328 5.05529 29.4941
H 5.06205 13.4694 14.7115
H 4.58059 14.5063 15.8776
O 5.35062 13.9745 15.5249
H 6.57877 11.9365 25.5747
H 7.93697 12.669 25.0403
O 6.94724 12.7628 25.1487
H 6.66585 18.7316 23.5314
H 8.27566 18.9323 23.7187
O 7.3997 19.405 23.6217
H 15.038 13.4746 17.1331
H 13.5012 12.9221 17.1305
O 14.195 13.4034 17.6664
H 7.74707 9.66927 18.9582
H 8.61939 11.0498 18.9525
O 7.69511 10.6679 18.9488
H 14.6552 7.71206 9.41496
H 14.3083 8.34159 10.8813
O 14.9303 7.74349 10.3759
H 3.12099 22.7997 32.5499
H 3.63753 22.7563 34.0984
O 2.84346 22.653 33.4994
H 8.99456 11.7239 33.5952
H 9.25387 12.2845 35.1069
O 9.56916 12.3178 34.1585
H 16.9771 17.8001 31.4626
H 15.777 17.3843 30.4361
O 16.7273 17.2103 30.6946
H 5.88477 19.787 13.2184
H 7.04038 20.8468 13.6747
O 6.53849 20.4714 12.8954
H 13.4742 1.75103 9.12553
H 13.7076 1.01307 10.5635
O 13.7447 0.89742 9.57086
H 17.9492 20.9598 11.9055
H 18.22 19.3532 12.0163
O 18.0353 20.1878 12.5354
H 10.5687 2.13354 25.8322
H 9.73237 3.43244 26.3617
O 9.71861 2.4374 26.2626
H 1.45893 11.826 15.138
H 1.33549 13.4541 15.1691
O 0.821513 12.5962 15.1617
H 5.17548 0.927424 19.8351
H 6.41282 0.879692 18.7705
O 5.79754 1.48055 19.2809
H 11.4849 20.5431 17.4446
H 10.5327 19.3421 16.8811
O 11.286 19.5646 17.5
H 0.941833 22.1323 20.6782
H 1.0753 21.5728 22.2065
O 1.56754 21.7394 21.3521
H 13.8432 8.50448 34.0013
H 13.721 7.35539 32.8474
O 13.9458 7.52901 33.8063
H 12.4102 14.6574 36.3052
H 10.8273 15.0548 36.363
O 11.5182 14.4053 36.6806
H 8.95558 0.89863 22.8223
H 7.40034 0.95735 23.3169
O 8.35376 1.02615 23.6108
H 1.25491 23.9528 34.1272
H 0.900139 23.208 32.7179
O 1.30934 24.0216 33.131
H 8.62314 19.2575 28.0085
H 9.84327 18.3231 27.4562
O 9.4835 19.2552 27.4987
H 15.2402 15.0815 31.5989
H 13.8332 14.2642 31.4601
O 14.2983 15.128 31.2661
H 4.94806 4.17884 33.3953
H 4.29644 4.50752 34.8562
O 4.78789 4.89406 34.0757
H 13.9802 17.1661 25.5438
H 14.4936 17.9888 26.8578
O 14.0785 18.0738 25.9519
H 7.95573 10.1569 8.68255
H 6.44551 10.776 8.62905
O 6.98136 9.93238 8.66517
H 9.29281 13.0083 18.1431
H 10.2718 13.6605 19.2758
O 10.1744 12.9229 18.6076
H 6.6931 19.9538 28.6757
H 5.42879 20.8421 29.2043
O 5.70088 19.9689 28.7998
H 12.5117 16.8823 15.6065
H 12.718 18.3869 16.207
O 13.1158 17.4715 16.1432
H 2.91653 4.99968 18.7575
H 1.75336 3.91773 19.136
O 2.02871 4.87692 19.2011
H 8.80738 17.7585 20.4459
H 9.36651 19.2927 20.4699
O 9.62847 18.3288 20.4199
H 8.29258 16.1188 14.6321
H 7.896 15.6845 13.1086
O 8.56771 16.1659 13.6718
H 7.50488 4.12315 35.6246
H 8.59767 2.90978 35.6447
O 7.62387 3.13248 35.692
H 8.1341 9.04562 26.3547
H 8.27954 7.71531 25.4187
O 8.78125 8.40621 25.9394
H 1.64947 8.83512 22.7825
H 1.16143 9.85148 23.9639
O 1.94869 9.52758 23.439
H 7.64737 0.897172 20.7474
H 7.1774 2.18068 21.6411
O 6.86024 1.421 21.0732
H 4.57077 7.19019 33.2518
H 4.81106 6.86708 34.8345
O 4.22673 7.34444 34.1781
H 13.0062 14.2095 11.6578
H 12.6248 13.4679 13.0619
O 13.1407 14.2185 12.6488
H 18.3259 12.0849 10.2872
H 16.7559 12.5222 10.183
O 17.6795 12.84 10.3976
H 7.17424 18.4352 8.97275
H 7.60161 19.091 10.406
O 7.81661 18.3792 9.73717
H 13.5219 13.8929 26.7732
H 12.1626 14.5274 26.1278
O 13.162 14.53 26.0916
H 1.24728 23.7111 18.4329
H 2.35055 24.5685 19.2782
O 1.39882 24.5394 18.9724
H 4.4834 9.67118 18.9944
H 4.04623 8.09943 19.0673
O 3.763 9.01304 18.7754
H 17.8945 19.5694 30.0575
H 16.7237 19.5575 28.9191
O 16.909 19.6315 29.899
H 8.14446 6.10635 36.7973
H 9.61791 5.88586 36.1286
O 8.86609 5.43885 36.6135
H 16.379 4.32006 35.9683
H 15.7748 3.125 36.903
O 16.4627 3.84876 36.8463
H 18.3012 21.9856 26.3432
H 18.3404 23.323 25.4069
O 17.7557 22.733 25.9639
H 3.22205 9.20703 20.7775
H 2.349 10.1692 19.7882
O 3.08253 10.1476 20.4676
H 2.10123 22.3515 14.5475
H 2.19159 23.9793 14.6421
O 1.64089 23.2095 14.3193
H 6.49941 7.99733 35.3175
H 7.13069 6.92724 34.2577
O 7.09369 7.89153 34.5202
H 0.905409 17.6886 33.3087
H 1.02892 16.9133 34.7406
O 0.852262 16.7993 33.7629
H 11.7048 10.7495 13.8076
H 11.2069 12.1291 14.5257
O 11.9625 11.6868 14.0423
H 17.9246 16.2246 17.7429
H 18.3225 16.3244 16.1623
O 18.0821 16.8499 16.9785
H 11.27 22.4889 27.6263
H 12.1457 21.5168 26.649
O 12.1476 22.3764 27.1602
H 4.35501 18.3292 34.772
H 5.96562 18.5826 34.8646
O 5.06494 18.9874 35.0229
H 1.28998 18.9035 17.5616
H 1.97999 19.4025 18.9551
O 1.53212 19.7021 18.1126
H 18.2329 15.6705 12.0799
H 18.3219 17.1456 11.3851
O 17.8095 16.2874 11.4163
H 5.30823 17.1682 23.5208
H 6.60139 16.911 24.4844
O 5.64342 16.6737 24.3228
H 5.24442 15.8283 29.5596
H 6.08109 17.2278 29.4689
O 6.15528 16.2305 29.4664
H 7.90689 8.52053 17.0299
H 7.84033 10.1499 16.943
O 8.44901 9.3609 17.0273
H 6.27151 11.9535 11.2608
H 7.1525 10.5787 11.2369
O 7.19801 11.5772 11.2699
H 15.2115 2.85007 9.98497
H 14.9063 4.45431 9.97582
O 15.5941 3.75512 10.1712
H 2.72196 12.0038 22.4033
H 3.90717 10.8936 22.2311
O 2.9239 11.0254 22.3572
H 6.69506 22.8563 13.2378
H 7.31825 24.3647 13.2943
O 7.53705 23.3893 13.3222
H 8.09378 17.8988 34.097
H 9.0656 17.592 35.373
O 8.42115 18.2456 34.976
H 6.2588 20.4698 26.2403
H 5.97401 19.0531 25.4795
O 5.66357 19.9973 25.5902
H 13.2781 7.69288 35.869
H 14.7167 7.81824 36.6317
O 13.7676 7.51639 36.723
H 12.7777 7.19179 20.5853
H 11.1672 7.44015 20.6923
O 12.0612 7.8864 20.6506
H 12.3454 16.8281 36.5921
H 13.7816 16.1162 36.9042
O 13.3063 16.9916 36.8157
H 15.3128 14.6499 20.4925
H 14.7458 15.0524 21.9701
O 15.4792 14.5848 21.4765
H 5.35464 18.1132 36.8996
H 3.88742 17.3964 36.9156
O 4.36827 18.2709 36.8515
H 5.55297 12.6491 33.5496
H 6.00769 12.4303 31.9965
O 6.30486 12.7466 32.8975
H 12.6992 14.5633 34.2376
H 14.1863 14.8369 33.6208
O 13.6807 14.5272 34.4261
H 2.83178 1.43493 18.4234
H 3.77064 2.77057 18.3852
O 3.16072 2.18569 17.8504
H 8.29482 22.7617 30.445
H 6.86144 22.4809 31.1754
O 7.65851 22.0527 30.7494
H 3.71884 18.8969 30.1875
H 4.20742 17.371 30.5033
O 4.51374 18.3072 30.3307
H 4.67881 15.42 34.5067
H 5.49135 14.2567 35.3148
O 5.43776 14.7706 34.4586
H 0.887502 3.30882 30.3609
H 0.889108 4.42195 31.5558
O 1.38214 3.64612 31.162
H 5.69092 4.28675 31.4225
H 7.16639 4.98283 31.4953
O 6.60836 4.29931 31.0247
H 2.99844 3.76633 28.1741
H 1.56599 4.35746 28.6894
O 2.52607 4.57826 28.5173
H 9.10076 3.13369 17.1093
H 10.0201 4.36029 16.5462
O 9.10114 4.09672 16.8397
H 5.44184 9.61372 10.0192
H 5.18635 9.51279 11.6289
O 4.83981 9.88798 10.7691
H 16.7349 16.2849 34.0383
H 17.0615 17.871 34.2488
O 16.8772 17.0063 34.7161
H 11.5532 19.6816 25.5848
H 11.4694 18.051 25.5535
O 10.9352 18.8964 25.5437
H 3.58507 8.6229 9.44916
H 2.81102 9.76309 10.3253
O 2.68982 8.96613 9.73346
H 8.05454 4.06015 23.2481
H 9.10015 3.43104 24.3334
O 8.48813 3.21896 23.5714
H 8.8006 22.4335 23.1222
H 9.65965 23.7179 22.5938
O 9.66755 22.7256 22.7182
H 11.1517 17.8 31.3464
H 12.1984 16.6122 31.7469