205
Lattice="9.61116329 0.0 0.0 0.0 12.9500526 0.0 0.0 0.0 17.54118754" Properties=species:S:1:pos:R:3:force_atom_sigma:R:1:DFT_forces:R:3 density=4.7192292 time=0.0 temp=300.0 md_energy=-1032.9721 _ConfigSet_loc=" / 0" vasp_rundir=run_VASP_kkuoi3ls config_type=surf_samples_cus_only DFT_energy=-1081.2461627 DFT_stress_FOO="0.01189342683111008 -0.005678018753923389 -0.019625494356733032 -0.00039945974226014626 0.006039989108796264 0.002443430555143949" pbc="T T T"
H        6.52638000       4.74050000      12.73140000       0.00400000       1.50894829      -0.06174358      -0.36545718
H        8.13440000       5.02528000      12.73340000       0.00400000      -1.62210591       0.05708960      -0.32920465
O        7.31417000       4.97851000      12.16320000       0.00800000       0.43399061       1.73433572       1.48631544
H        3.07907000       9.19239000      15.65740000       0.00400000       0.93712932      -0.76440305      -0.20806878
H        4.05792000       7.88593000      15.61440000       0.00400000      -1.05478077       1.07835376       0.22403515
O        3.99711000       8.85285000      15.86240000       0.00800000      -0.85058500      -1.29194756      -2.15129773
H        6.51596000      10.83350000      10.66650000       0.00400000       0.27688292       0.67299933      -0.05902279
H        7.47480000      12.14470000      10.83470000       0.00400000      -1.15740755      -0.66921746       0.02397299
O        6.54011000      11.80000000      10.92230000       0.00800000       1.93110358       1.19057547       0.31805629
H        2.03959000       2.46914000      13.31280000       0.00400000       1.13773223      -1.16247397       0.54337618
H        3.32435000       1.58083000      13.78940000       0.00400000      -1.40462504       0.49835737      -0.51428941
O        2.33554000       1.57169000      13.64010000       0.00800000       1.60852851      -1.19509688      -1.52411422
H        6.54916000       9.97467000      14.42580000       0.00400000      -0.44541485      -1.48311968       0.01356805
H        6.20047000       8.38820000      14.25730000       0.00400000       0.16170500       1.46175781      -0.10122372
O        5.84246000       9.27698000      14.54380000       0.00800000       2.69994676      -2.22719076       2.05386354
H        0.89871900       9.37300000      14.07830000       0.00400000       0.67936642       1.41854844      -0.42269393
H        1.58844000      10.71050000      13.44420000       0.00400000      -0.29420900      -1.02037887       0.71398742
O        1.37884000      10.22380000      14.29230000       0.00800000      -0.19000914      -1.48784031      -1.51284137
H        3.98864000      11.11240000      16.29390000       0.00400000       0.98034281       0.46997163      -0.78056420
H        5.34959000      11.64380000      15.56430000       0.00400000      -1.18118301      -0.27791139       0.73786026
O        4.77678000      10.84310000      15.74030000       0.00800000       0.57163760       3.15075498       0.72387787
H        3.86479000      10.67160000       9.36273000       0.00400000       1.03508759       0.58460672       0.35848793
H        5.02544000      11.81370000       9.48678000       0.00400000      -0.87593948      -1.01343215       0.24068398
O        4.59767000      11.03160000       9.94013000       0.00800000      -1.65342001       1.45214925      -2.56383733
H        8.77210000      10.80850000      11.76610000       0.00400000       0.01540618      -1.69247921       0.91741962
H        8.33431000       9.27731000      12.12760000       0.00400000       0.63314660       1.69743029      -0.35925905
O        8.74334000      10.11610000      12.48710000       0.00800000      -1.30542830      -0.36812890       0.61763762
H        2.96394000      12.09160000      10.61500000       0.00400000       0.91196930      -0.03315572       1.46888883
H        4.14766000      11.97790000      11.73430000       0.00400000      -1.49882344      -0.09216358      -0.92963758
O        3.16310000      12.08450000      11.59500000       0.00800000      -0.34085302       0.78701704       0.40467524
H        2.72271000       3.89551000      10.72240000       0.00400000       0.39751845      -1.09281700      -1.27001483
H        3.24606000       3.69125000       9.18903000       0.00400000      -0.78663205      -0.25906457       1.47984672
O        3.10672000       3.24099000      10.07110000       0.00800000       3.11837372       0.75784104      -0.20023263
H        5.43760000       6.39400000       8.57217000       0.00400000      -0.61496632       0.67666397       0.06654849
H        4.29629000       7.50162000       8.94289000       0.00400000       1.52902510      -0.82446213       0.23115658
O        5.11041000       7.02538000       9.27533000       0.00800000      -0.80125870      -3.31352102      -1.91401426
H        8.10141000       3.86195000      16.02830000       0.00400000       0.57405398      -0.12729807      -1.19344138
H        8.74301000       4.27439000      14.58430000       0.00400000      -0.82241410      -0.79673793       1.32992924
O        8.10418000       3.66088000      15.04860000       0.00800000       1.04479293      -0.12921420      -0.03177021
H        0.87165700       4.69997000      10.08290000       0.00400000      -0.03018257      -1.09806570      -1.82668086
H        0.81734900       3.40877000       9.08458000       0.00400000       0.46115234       1.23094632       0.96176593
O        1.27805000       4.27607000       9.27345000       0.00800000      -1.75422621      -0.95146028      -0.21429528
H        5.17139000       3.17058000      12.44320000       0.00400000      -1.19154484      -0.43348820      -0.26523746
H        3.71038000       2.58484000      12.00830000       0.00400000       0.93528782       0.92662021       0.47065412
O        4.18876000       3.21028000      12.62480000       0.00800000       0.94378926      -0.09460858      -0.35186140
H        2.64494000       5.40477000      13.27120000       0.00400000      -0.63479781      -0.86636143      -0.80913202
H        1.21429000       4.92755000      12.64480000       0.00400000       1.28581395       0.08221771       0.36681513
O        2.15279000       4.64581000      12.84470000       0.00800000      -1.66103851       0.29768001       0.60112111
H        2.34382000       7.01243000       8.53904000       0.00400000      -0.06170294      -0.67555869       1.10591274
H        2.69021000       5.79033000       9.56535000       0.00400000      -0.63767212       1.08661723      -1.13828408
O        1.97636000       6.20520000       9.00105000       0.00800000       1.36874667       2.91847605      -0.73523978
H        3.76417000       5.69805000      11.35790000       0.00400000      -0.00792040       1.11733333       0.37597028
H        3.95659000       7.29568000      11.63610000       0.00400000      -0.60524282      -1.15724249      -0.44109196
O        3.30078000       6.54069000      11.63240000       0.00800000       1.62050187       0.02609349       0.02390842
H        5.92990000       7.30866000      16.39030000       0.00400000      -0.13038198      -0.91396517      -3.09162053
H        6.74213000       8.72381000      16.32350000       0.00400000       0.10997140       1.31545733      -3.91752492
O        6.83647000       7.72845000      16.34530000       0.00800000       0.29441704      -3.83441389      -6.26290143
H        6.05058000       0.88836300      13.42000000       0.00400000      -0.34417144       1.15654924       0.79835163
H        5.46244000       1.97134000      14.49150000       0.00400000       0.65860245      -0.39352708      -0.81929804
O        6.15065000       1.81484000      13.78300000       0.00800000      -0.70085182      -1.81892305       1.32339411
H        1.38119000      10.90160000      16.40110000       0.00400000      -0.12565349       1.00579091      -1.11348346
H        0.89165500      12.05890000      15.35800000       0.00400000       1.26029818      -0.71889255       1.08189155
O        1.63078000      11.76620000      15.96480000       0.00800000      -0.63583203       0.76245951       1.55858909
H        6.35670000       8.67954000      10.23960000       0.00400000      -1.52013393       0.08739714       0.05740355
H        4.93512000       8.98493000      10.98300000       0.00400000       1.18996395       0.35925748      -1.02086259
O        5.39426000       8.91123000      10.09760000       0.00800000       0.28473258       0.89643626       2.61323603
H        2.34415000       1.24552000      10.97880000       0.00400000      -1.51185617       0.55167429       0.85036812
H        0.90444200       1.54328000      11.68980000       0.00400000       1.26445250      -0.17519331      -0.48015903
O        1.57412000       1.88167000      11.02860000       0.00800000      -1.33842535      -0.53693832       3.64402727
H        0.89454400       3.42433000      15.02530000       0.00400000       0.80934734      -1.00187579       0.74405033
H        2.20630000       2.63593000      15.59500000       0.00400000      -1.18566123       0.04017549      -0.28445271
O        1.27292000       2.52702000      15.25290000       0.00800000      -0.97555799       2.27749820       1.79776479
H        7.02553000      11.23220000       8.67693000       0.00400000      -0.90311313      -1.13152125      -0.74802110
H        5.81109000      10.15450000       8.50191000       0.00400000       1.50549862       0.48697140      -0.11580881
O        6.80043000      10.26070000       8.60225000       0.00800000      -1.15024630       1.53324168      -1.82670184
H        0.84263700       9.32931000      11.49980000       0.00400000       0.74747460       1.23395493      -0.49145840
H        2.11993000      10.29290000      11.17280000       0.00400000      -1.10926682      -0.30710287       0.30634561
O        1.13776000      10.16430000      11.03530000       0.00800000       1.63138437      -0.44578778      -0.30391203
H        1.29153000       7.04816000      11.89690000       0.00400000       0.48169696       0.54183752       1.14019364
H        1.57496000       7.18059000      13.49970000       0.00400000      -0.26906759       0.52621916      -1.43148669
O        1.23006000       7.65479000      12.68960000       0.00800000      -0.75994324      -0.85132578       0.40388012
H        6.29030000       9.52644000      12.39190000       0.00400000      -0.78797250       1.31812555       0.22168017
H        5.77199000      11.04330000      12.70400000       0.00400000       0.09132541      -1.58964260      -0.59536214
O        5.49504000      10.08540000      12.62690000       0.00800000      -0.23263331       1.36826365      -2.60104350
H        7.28820000       1.48030000       9.74637000       0.00400000      -1.04322711      -0.00097054      -0.71030798
H        5.83744000       0.88731000       9.28758000       0.00400000       1.36639239       0.64439506      -0.05297163
O        6.51349000       1.60646000       9.12667000       0.00800000      -0.00566936      -1.52014017       0.79795684
H        8.56080000       9.88191000      16.36130000       0.00400000       0.44789216      -0.56066948      -1.17732566
H        8.58647000       9.60662000      14.75190000       0.00400000       0.05408921       0.30798843       1.31654028
O        8.72107000       9.19438000      15.65300000       0.00800000      -0.46878333       0.80539418      -0.97970430
H        1.03303000       0.88820800       8.56529000       0.00400000       0.96641216       0.54271449      -0.15386796
H        2.61475000       1.14753000       8.87796000       0.00400000      -1.41095551       0.23558781      -0.02824766
O        1.69156000       1.51962000       8.97488000       0.00800000       0.46130530      -1.98034860      -3.52060625
H        6.12039000       2.69678000      16.33510000       0.00400000       0.06217302       0.24960641       0.86728090
H        6.07997000       4.32652000      16.23940000       0.00400000      -0.27610013      -1.28161791      -0.57183274
O        5.52296000       3.49711000      16.28360000       0.00800000       0.05632108       1.95135593      -1.10845273
H        5.17403000       3.02682000       9.83280000       0.00400000       0.46796628       1.56624821      -0.01227678
H        5.16910000       4.64412000       9.60667000       0.00400000       0.47221484      -1.23058586       0.37830043
O        5.73559000       3.85427000       9.84193000       0.00800000      -0.72914944       1.09050079      -0.49249322
H        8.70574000       3.95737000      10.99940000       0.00400000      -0.88737577      -0.73490659      -1.82652185
H        7.80426000       3.58566000       9.68945000       0.00400000       0.64697058       0.62729200       1.09039006
O        8.73560000       3.71794000      10.02890000       0.00800000      -1.14618366      -0.22524892       0.32715582
H        2.79880000       5.62189000      15.63700000       0.00400000       1.34985419      -0.10165897       0.63491001
H        4.12684000       5.04521000      16.39230000       0.00400000      -0.64233375       0.21820081      -0.77870570
O        3.78009000       5.75375000      15.77760000       0.00800000      -0.54425692      -0.21657083      -0.18228050
H        6.50483000       6.32209000      14.26850000       0.00400000       1.27282801      -0.41961637       0.30915275
H        8.12898000       6.25051000      14.42290000       0.00400000      -1.41523292       0.17084770       0.48126414
O        7.25719000       5.98190000      14.83270000       0.00800000      -0.32465316       0.90144656      -1.14617799
H        8.71006000      10.43440000       9.52465000       0.00400000      -0.09573047      -1.77875922       0.26728204
H        8.53208000       8.81647000       9.39214000       0.00400000      -0.24903605       1.47577573       0.45086896
O        8.41206000       9.60436000       9.99624000       0.00800000       1.73764888      -0.99370322      -0.05231131
H        6.30507000       6.74894000      11.71000000       0.00400000       1.46201495       0.62870573      -0.10355157
H        7.64741000       7.34374000      12.42490000       0.00400000      -1.01113216      -0.58729020      -1.11578916
O        7.07223000       7.38228000      11.60770000       0.00800000      -0.03715238       1.02091894       1.07944840
H        7.62855000       2.94461000      12.72220000       0.00400000      -1.02846003      -1.07378980      -0.89469411
H        6.75093000       1.95230000      11.76730000       0.00400000       0.83807729       0.98371698       0.45143705
O        7.14281000       2.86853000      11.85140000       0.00800000       0.08859588      -2.77222357       0.07787752
H        8.71359000      12.06860000      14.61550000       0.00400000      -1.43427153      -0.39770280      -0.13388225
H        7.10708000      12.05670000      14.32260000       0.00400000       1.51098358      -0.06037667       0.51513335
O        7.86166000      11.56410000      14.75630000       0.00800000      -0.47102353       1.29022896      -0.26244669
Ir       1.60186000       1.61885000       1.24129000       0.01600000      -0.26507804      -0.12218663      -1.13035046
Ir       1.60186000       8.09387000       1.24129000       0.01600000      -0.02123092       0.29959289      -0.83585775
Ir       4.80558000       1.61885000       1.24129000       0.01600000      -0.18985227       0.18021567      -0.53318668
Ir       4.80558000       8.09387000       1.24129000       0.01600000      -3.55017814      -0.19196962       0.67190300
Ir       8.00930000       1.61885000       1.24129000       0.01600000       0.49650255      -0.00835632      -0.91862407
Ir       8.00930000       8.09387000       1.24129000       0.01600000       2.37024936      -0.29163111       1.66394087
Ir       3.20372000       4.85646000       1.26241000       0.01600000      -0.11077130      -0.06917657       1.86585335
Ir       3.20372000      11.33150000       1.26241000       0.01600000      -0.16111038       0.30130766       1.90630221
Ir       6.40745000       4.85646000       1.26241000       0.01600000      -0.25462751      -0.56526584       1.74476348
Ir       6.40745000      11.33150000       1.26241000       0.01600000      -0.32279843       0.19979931       1.77395962
Ir       0.00000000       4.85646000       1.26241000       0.01600000       0.10407250      -0.00706054       1.77991672
Ir       0.00000000      11.33150000       1.26241000       0.01600000       0.32211300       0.48913034       1.78671548
Ir       1.60186000       4.85727000       4.53020000       0.01600000      -0.27307521      -0.15721473      -0.70304554
Ir       1.60186000      11.33230000       4.53020000       0.01600000      -0.23249627       0.05922317      -0.96053962
Ir       4.80558000       4.85727000       4.53020000       0.01600000       0.27160042       0.02979470      -0.74631012
Ir       4.80558000      11.33230000       4.53020000       0.01600000       0.44490499       0.10213080      -0.71355717
Ir       8.00930000       4.85727000       4.53020000       0.01600000      -0.03156431      -0.03286443      -0.45361195
Ir       8.00930000      11.33230000       4.53020000       0.01600000      -0.22321565       0.14350384      -0.47963091
Ir       3.20372000       1.61977000       4.43488000       0.01600000      -0.00087595      -0.04141312      -0.88698226
Ir       3.20372000       8.09479000       4.43488000       0.01600000       0.37094521       0.02809837      -1.15910977
Ir       6.40745000       1.61977000       4.43488000       0.01600000       0.11366756       0.36161426       2.78817879
Ir       6.40745000       8.09479000       4.43488000       0.01600000      -0.02828515      -0.00494531       6.12637373
Ir       0.00000000       1.61977000       4.43488000       0.01600000      -0.01480811      -0.04486504       6.06153957
Ir       0.00000000       8.09479000       4.43488000       0.01600000      -0.34974333      -0.03813000      -1.07690176
O        0.00000000       1.61875000       0.00000000       0.00800000      -0.17298898      -0.11054051       1.08603307
O        0.00000000       8.09378000       0.00000000       0.00800000       0.43993517      -0.43176331       1.46077361
O        3.20372000       1.61875000       0.00000000       0.00800000       0.04746610       0.11749465       0.74016271
O        3.20372000       8.09378000       0.00000000       0.00800000      -1.31552393      -1.59614777       3.19805376
O        6.40745000       1.61875000       0.00000000       0.00800000       0.27433695      -0.67820080       0.61425993
O        6.40745000       8.09378000       0.00000000       0.00800000       0.18638242       3.72517995      12.49135570
O        1.60186000      12.57270000       1.25353000       0.00800000       0.05351519       0.04886425      -0.32448252
O        1.60186000       6.09771000       1.25353000       0.00800000       0.04142831       0.03435855      -0.70355251
O        4.80558000      12.57270000       1.25353000       0.00800000       0.00132926       0.09394012      -0.65436857
O        4.80558000       6.09771000       1.25353000       0.00800000       0.03793934      -0.06713541      -0.82732342
O        8.00930000      12.57270000       1.25353000       0.00800000      -0.00151897       0.02507465      -0.65156711
O        8.00930000       6.09771000       1.25353000       0.00800000      -0.04829619       0.00228943      -0.84429975
O        3.20372000       1.61665000       2.47312000       0.00800000       0.06530301      -0.01079448       0.12977751
O        3.20372000       8.09168000       2.47312000       0.00800000       0.58500463       0.10861281       0.21053393
O        6.40745000       1.61665000       2.47312000       0.00800000      -0.09245311      -0.12770979      -0.22325604
O        6.40745000       8.09168000       2.47312000       0.00800000       0.06891871      -0.03822361      -0.07452430
O        0.00000000       1.61665000       2.47312000       0.00800000      -0.04074066       0.04442352      -0.01245103
O        0.00000000       8.09168000       2.47312000       0.00800000      -0.31703857       0.03076749       0.16602403
O        1.60186000       3.61500000       1.25786000       0.00800000      -0.02449965      -0.05307933      -0.66583899
O        1.60186000      10.09000000       1.25786000       0.00800000      -0.00360076      -0.14188934      -0.74376956
O        4.80558000       3.61500000       1.25786000       0.00800000      -0.13403215      -0.17066116       0.00560079
O        4.80558000      10.09000000       1.25786000       0.00800000       0.11864075       0.04011141      -0.64864752
O        8.00930000       3.61500000       1.25786000       0.00800000      -0.00512991      -0.05425144      -0.78012276
O        8.00930000      10.09000000       1.25786000       0.00800000      -0.10477281      -0.00915870      -0.91983389
O        3.20372000       4.85808000       3.26099000       0.00800000       0.06810337       0.03597142       0.31069067
O        3.20372000      11.33310000       3.26099000       0.00800000       0.04393675      -0.01906276       0.26017436
O        6.40745000       4.85808000       3.26099000       0.00800000       0.10103866       0.06176881       0.27398803
O        6.40745000      11.33310000       3.26099000       0.00800000       0.09399724      -0.06261718       0.01907134
O        0.00000000       4.85808000       3.26099000       0.00800000      -0.03192996       0.00592212       0.26300609
O        0.00000000      11.33310000       3.26099000       0.00800000      -0.08464385      -0.00074706       0.12021353
O        1.60186000       2.84933000       4.57601000       0.00800000       0.08016989       0.42827624      -1.21092286
O        1.60186000       9.32436000       4.57601000       0.00800000       0.00226960       0.47523085      -0.70453791
O        4.80558000       2.84933000       4.57601000       0.00800000       0.03029875       0.38991633      -1.05583764
O        4.80558000       9.32436000       4.57601000       0.00800000      -0.06890074       0.43449422      -1.15148988
O        8.00930000       2.84933000       4.57601000       0.00800000      -0.12398464       0.42886055      -1.35328876
O        8.00930000       9.32436000       4.57601000       0.00800000       0.06389966       0.41520591      -1.16717432
O        3.20372000       4.85648000       5.72106000       0.00800000       0.04519310       0.01390078       0.81838532
O        3.20372000      11.33150000       5.72106000       0.00800000      -0.00008663      -0.05701715       1.04998179
O        6.40745000       4.85648000       5.72106000       0.00800000      -0.05377744      -0.03001432       0.32520253
O        6.40745000      11.33150000       5.72106000       0.00800000      -0.06485290       0.03422744       0.09163989
O        0.00000000       4.85648000       5.72106000       0.00800000       0.00251641       0.25351170       0.32932958
O        0.00000000      11.33150000       5.72106000       0.00800000       0.04085657      -0.27837358       0.57579694
O        1.60186000       0.39008900       4.57742000       0.00800000       0.11284970      -0.44755625      -1.17459138
O        1.60186000       6.86512000       4.57742000       0.00800000      -0.02109630      -0.47442003      -0.71527765
O        4.80558000       0.39008900       4.57742000       0.00800000       0.04297661      -0.38465325      -1.02812884
O        4.80558000       6.86512000       4.57742000       0.00800000      -0.12344549      -0.45375887      -1.16133042
O        8.00930000       0.39008900       4.57742000       0.00800000      -0.16879931      -0.43464250      -1.36201968
O        8.00930000       6.86512000       4.57742000       0.00800000       0.10462305      -0.44206979      -1.17072568
O        0.00000000       8.09479000       6.43488000       0.00800000       0.30996621       0.04928111      -2.82196251
H        0.00000000       8.85803000       6.91193000       0.00400000      -0.23025342       3.96463804       2.31712194
H        0.00000000       7.33156000       6.91193000       0.00400000      -0.16386523      -4.08165969       2.42609650
O        3.20372000       8.09479000       6.43488000       0.00800000      -0.27442557       0.06918098      -2.78205523
H        3.20372000       8.85803000       6.91193000       0.00400000       0.16668283       3.99037243       2.24709057
H        3.20372000       7.33156000       6.91193000       0.00400000       0.19832481      -4.10324610       2.16524446
O        6.40745000       8.07998000       6.42562000       0.00800000      -0.04774744      -0.06471760      -2.99114469
O        0.00000000       1.60495000       6.42562000       0.00800000      -0.04637548      -0.03817501      -2.94208383
O        3.20372000       1.61977000       6.43488000       0.00800000       0.22243667       0.03635264      -3.15202933
H        3.20372000       2.38301000       6.91193000       0.00400000      -0.23581172       3.87366893       2.38451121
H        3.20372000       0.85652900       6.91193000       0.00400000      -0.10955575      -3.81725022       2.19288526
O        6.40745000       1.60495000       6.42562000       0.00800000      -0.25666868      -2.56807602      -1.31321102
H        6.40745000       2.39782000       6.92119000       0.00400000       0.24512627       2.16558520       0.66194934
205
Lattice="9.61116329 0.0 0.0 0.0 12.9500526 0.0 0.0 0.0 17.54118754" Properties=species:S:1:pos:R:3:force_atom_sigma:R:1:DFT_forces:R:3 density=4.7192292 time=0.39 temp=336.42309 md_energy=-1307.2231 _ConfigSet_loc=" / 3" vasp_rundir=run_VASP_ayl12qmj config_type=surf_samples_cus_only DFT_energy=-1020.01573787 DFT_stress_FOO="-0.041282377243136964 -0.037048166506362744 -0.004181072194559388 -0.0004181636601746623 -0.002922040821980268 0.002224861225487182" pbc="T T T"
H        7.93608000       4.28898000      12.13160000       0.00400000       0.02215189       0.16827700      -0.04863762
H        8.96156000       5.48557000      12.11640000       0.00400000      -0.15843430       0.21266059      -0.09769433
O        8.23145000       5.07267000      11.61910000       0.00800000       0.21372550       0.03421889       0.08572139
H        4.15670000       7.21318000      15.02000000       0.00400000      -0.86605454       1.85923758       2.27713928
H        3.91832000       7.68300000      16.64100000       0.00400000       0.03912303       0.91659898      -2.61479465
O        3.83718000       7.99682000      15.64200000       0.00800000       0.25722258      -1.56880550      -0.90176640
H        7.26968000      11.62910000      10.76990000       0.00400000      -0.38425377      -0.80300321      -0.60698717
H        8.31444000      11.62900000      11.91060000       0.00400000       0.08033886      -0.52894096       0.23193373
O        7.61270000      12.19390000      11.50140000       0.00800000       0.27026654       0.54818708      -0.12632030
H        3.13557000       1.94741000      12.92560000       0.00400000      -0.20567266      -0.16083837       0.29256332
H        2.43376000       0.91853600      13.85340000       0.00400000      -0.03977757      -0.29632611       0.47182019
O        3.01622000       1.69007000      13.87820000       0.00800000       0.19321069       0.37159373      -0.54869421
H        5.97726000      10.00300000      12.57190000       0.00400000       0.81654075      -1.14825909       2.37013134
H        6.35618000       8.66788000      12.21130000       0.00400000       0.60900789      -0.73829843       2.02650982
O        6.38354000       9.16378000      13.14480000       0.00800000      -3.03518536       3.06710700     -11.02755988
H        1.53955000      10.52580000      13.65860000       0.00400000       0.34799083      -0.12664463       0.20898129
H        2.93783000      10.13720000      13.13360000       0.00400000       0.14472992       0.16155187       0.20906949
O        2.30731000       9.94372000      13.84470000       0.00800000      -0.17896684      -0.31984455      -0.24316517
H        4.77873000      12.21720000      17.14260000       0.00400000       0.05873195      -1.77829813      -1.28436277
H        5.93108000      12.90460000      17.02500000       0.00400000      -0.45637210      -0.67284425      -0.00363154
O        5.00697000      11.62130000      16.22460000       0.00800000       0.29955954       4.62162026       1.10340770
H        3.22097000      12.73260000      10.39500000       0.00400000      -0.14136630      -0.13831605      -0.74625315
H        4.67683000      12.76830000       9.92288000       0.00400000      -0.10043035      -0.05359024      -0.85813935
O        3.85765000      12.19540000       9.88729000       0.00800000      -0.29089861       0.03320730       0.41485788
H        0.45879300      11.07150000      12.09290000       0.00400000      -0.01828027      -0.20275238       0.12952995
H        9.37652000       9.74989000      12.31580000       0.00400000      -0.59062838      -0.37401502      -0.33172641
O        9.45728000      10.64680000      12.72570000       0.00800000      -0.08480826       0.69665718      -0.11885933
H        1.56899000      12.68510000      11.38420000       0.00400000      -0.04570219       0.22145745      -0.26916718
H        2.93077000      12.79830000      12.25010000       0.00400000       0.06927216      -0.13919152       0.17615439
O        2.04987000      12.37760000      12.20620000       0.00800000      -0.34428434       0.35712996       0.03231188
H        4.35612000       1.69494000      10.83460000       0.00400000      -0.11003179      -0.09899002       0.08332949
H        3.01968000       2.50177000      10.62350000       0.00400000      -0.36863315       0.19235106      -0.44417653
O        3.73017000       2.29445000      11.28340000       0.00800000       0.17116276      -0.16281043       0.04240781