24
Lattice="5.017180697 0.0 0.0 0.0 5.035827205 -0.000500843 0.0 -0.372836279 10.159103376" Properties=species:S:1:pos:R:3:DFT_forces:R:3:force_atom_sigma:R:1 vasp_rundir=vasp/run_VASP_o55wbi5p DFT_energy=-158.53581103 DFT_stress_FOO="-0.0008804973382370304 -0.0021615452847331923 -0.003876620960115311 -0.0006839226061436735 -4.62008364365218e-06 2.263526975065445e-06" config_type=bulk_iro2 pbc="T T T"
Ir       0.95735000       1.07254000       5.07943000       0.43847294      -0.00001785       0.00006124       0.01000000
Ir       1.25428000       3.49725000       7.61892000       0.00105210      -0.00106325       0.00187246       0.01000000
Ir       1.25428000       3.68365000       2.53942000       0.00102258       0.00120936      -0.00128929       0.01000000
Ir       1.55117000       1.25895000      -0.00012000      -0.43678637       0.00026795      -0.00037161       0.01000000
Ir       3.46595000       3.77687000      -0.00037000       0.43812454      -0.00022909      -0.00028729       0.01000000
Ir       3.76288000       1.16575000       2.53962000       0.00081491      -0.00082088       0.00175820       0.01000000
Ir       3.76288000       0.97932000       7.61922000       0.00068508       0.00110545      -0.00110302       0.01000000
Ir       4.05976000       3.59045000       5.07918000      -0.43685447       0.00020111      -0.00005962       0.01000000
O        0.47424000       0.10471000       8.55923000       0.06630112       0.04042789      -0.02037021       0.01000000
O        0.47424000       2.04038000       1.59962000       0.06602013      -0.04067970       0.02039087       0.01000000
O        0.53232000       2.78667000       4.08896000       0.05362601       0.05066483       0.03940779       0.01000000
O        0.53232000       4.39424000       6.06938000       0.05391636      -0.05096695      -0.03900867       0.01000000
O        1.97626000       2.60020000       9.16855000      -0.05465997       0.05233165       0.03738782       0.01000000
O        1.97626000       4.58069000       0.98981000      -0.05441749      -0.05210312      -0.03765808       0.01000000
O        2.03439000       0.29111000       3.47965000      -0.06688471       0.04062415      -0.01997703       0.01000000
O        2.03439000       1.85398000       6.67921000      -0.06723918      -0.04063099       0.01961896       0.01000000
O        2.98283000       2.80904000       3.47943000       0.06609849       0.04045517      -0.02042989       0.01000000
O        2.98283000       4.37187000       6.67892000       0.06598793      -0.04070623       0.02030726       0.01000000
O        3.04091000       0.08233000       9.16877000       0.05363941       0.05061061       0.03918080       0.01000000
O        3.04091000       2.06275000       0.99008000       0.05391494      -0.05090673      -0.03899072       0.01000000
O        4.48486000       0.26871000       4.08925000      -0.05466851       0.05202675       0.03760276       0.01000000
O        4.48486000       1.87636000       6.06961000      -0.05431658      -0.05180789      -0.03796498       0.01000000
O        4.54299000       2.62260000       8.55895000      -0.06691108       0.04071773      -0.01997214       0.01000000
O        4.54299000       4.55831000       1.59940000      -0.06693818      -0.04070999       0.01989439       0.01000000
144
Lattice="9.61116329 0.0 0.0 0.0 12.9500526 0.0 0.0 0.0 29.137618346752994" Properties=species:S:1:pos:R:3:DFT_forces:R:3:force_atom_sigma:R:1 vasp_rundir=vasp/run_VASP_61_8prde DFT_energy=-967.6485889 DFT_stress_FOO="0.01793697609047024 0.01964860095404533 0.015763634952674 -6.0799320583869555e-05 -1.254543334302535e-09 2.3093583765768055e-10" config_type=slab_MD_sample pbc="T T T"
Ir       1.60186375       1.61875657       1.61876952      -0.00016725       0.00462602      -0.74724700       0.01000000
Ir       1.60186375       8.09378287       1.61876952      -0.00017144       0.00463385      -0.74727474       0.01000000
Ir       4.80558165       1.61875657       1.61876952       0.00001184       0.00462906      -0.74724572       0.01000000
Ir       4.80558165       8.09378287       1.61876952       0.00001770       0.00463094      -0.74727768       0.01000000
Ir       8.00929954       1.61875657       1.61876952       0.00015757       0.00462967      -0.74725779       0.01000000
Ir       8.00929954       8.09378287       1.61876952       0.00015707       0.00463012      -0.74728811       0.01000000
Ir       3.20371789       4.85626972       1.61876952       0.00016380       0.00242306       1.74370061       0.01743702
Ir       3.20371789      11.33129602       1.61876952       0.00016061       0.00242634       1.74371773       0.01743719
Ir       6.40744540       4.85626972       1.61876952      -0.00016374       0.00242374       1.74370322       0.01743705
Ir       6.40744540      11.33129602       1.61876952      -0.00016427       0.00242583       1.74367359       0.01743675
Ir       0.00000000       4.85626972       1.61876952      -0.00000082       0.00242402       1.74367765       0.01743679
Ir       0.00000000      11.33129602       1.61876952       0.00000257       0.00242563       1.74368032       0.01743682
Ir       1.60186375       4.85627296       4.85627944      -0.00015196       0.01228005      -0.22790333       0.01000000
Ir       1.60186375      11.33129926       4.85627944      -0.00015301       0.01228022      -0.22789891       0.01000000
Ir       4.80558165       4.85627296       4.85627944      -0.00000503       0.01228226      -0.22788772       0.01000000
Ir       4.80558165      11.33129926       4.85627944       0.00000012       0.01227817      -0.22788588       0.01000000
Ir       8.00929954       4.85627296       4.85627944       0.00015712       0.01228733      -0.22790394       0.01000000
Ir       8.00929954      11.33129926       4.85627944       0.00015195       0.01227239      -0.22789490       0.01000000
Ir       3.20371789       1.61875981       4.85627944       0.00016388       0.00898725      -0.22477305       0.01000000
Ir       3.20371789       8.09378611       4.85627944       0.00016579       0.00898072      -0.22477274       0.01000000
Ir       6.40744540       1.61875981       4.85627944      -0.00016220       0.00898425      -0.22477781       0.01000000
Ir       6.40744540       8.09378611       4.85627944      -0.00015850       0.00898323      -0.22477018       0.01000000
Ir       0.00000000       1.61875981       4.85627944      -0.00000125       0.00898676      -0.22477267       0.01000000
Ir       0.00000000       8.09378611       4.85627944      -0.00000725       0.00898068      -0.22476778       0.01000000
Ir       1.60186375       1.61884530       8.09101980      -0.00016130       0.00359228      -0.06323557       0.01000000
Ir       1.60186375       8.09387160       8.09101980      -0.00016849       0.00360063      -0.06323220       0.01000000
Ir       4.80558165       1.61884530       8.09101980      -0.00000270       0.00359373      -0.06324739       0.01000000
Ir       4.80558165       8.09387160       8.09101980       0.00000492       0.00359838      -0.06325076       0.01000000
Ir       8.00929954       1.61884530       8.09101980       0.00016447       0.00359443      -0.06324162       0.01000000
Ir       8.00929954       8.09387160       8.09101980       0.00016263       0.00359878      -0.06324002       0.01000000
Ir       3.20371789       4.85645914       8.11214154       0.00016387       0.00946290       0.04549762       0.01000000
Ir       3.20371789      11.33148544       8.11214154       0.00015998       0.00946139       0.04550881       0.01000000
Ir       6.40744540       4.85645914       8.11214154      -0.00016576       0.00946408       0.04549952       0.01000000
Ir       6.40744540      11.33148544       8.11214154      -0.00016665       0.00945973       0.04550258       0.01000000
Ir       0.00000000       4.85645914       8.11214154       0.00000174       0.00946414       0.04549224       0.01000000
Ir       0.00000000      11.33148544       8.11214154       0.00000690       0.00945998       0.04550180       0.01000000
Ir       1.60186375       4.85727282      11.37992619      -0.00015135       0.00676813      -0.19705767       0.01000000
Ir       1.60186375      11.33229912      11.37992619      -0.00015295       0.00677119      -0.19706806       0.01000000
Ir       4.80558165       4.85727282      11.37992619      -0.00000167       0.00676870      -0.19704893       0.01000000
Ir       4.80558165      11.33229912      11.37992619      -0.00000174       0.00677128      -0.19706336       0.01000000
Ir       8.00929954       4.85727282      11.37992619       0.00015331       0.00676675      -0.19707437       0.01000000
Ir       8.00929954      11.33229912      11.37992619       0.00015480       0.00677291      -0.19708671       0.01000000
Ir       3.20371789       1.61976778      11.28461068       0.00016733      -0.00108753      -0.22938708       0.01000000
Ir       3.20371789       8.09479408      11.28461068       0.00016857      -0.00108550      -0.22938503       0.01000000
Ir       6.40744540       1.61976778      11.28461068      -0.00016305      -0.00108659      -0.22939106       0.01000000
Ir       6.40744540       8.09479408      11.28461068      -0.00016494      -0.00108645      -0.22937541       0.01000000
Ir       0.00000000       1.61976778      11.28461068      -0.00000283      -0.00108725      -0.22937030       0.01000000
Ir       0.00000000       8.09479408      11.28461068      -0.00000220      -0.00108557      -0.22935809       0.01000000
O        0.00000000       1.61875981       0.37468063      -0.00000933       0.00264319       0.94010669       0.01000000
O        0.00000000       8.09378611       0.37468063      -0.00000589       0.00264625       0.94010598       0.01000000
O        3.20371789       1.61875981       0.37468063       0.00005050       0.00264325       0.94009655       0.01000000
O        3.20371789       8.09378611       0.37468063       0.00004554       0.00264650       0.94009584       0.01000000
O        6.40744540       1.61875981       0.37468063      -0.00003857       0.00264415       0.94010255       0.01000000
O        6.40744540       8.09378611       0.37468063      -0.00003581       0.00264509       0.94009862       0.01000000
O        1.60186375       6.10032948       1.61876952      -0.00005691      -0.02318638      -0.59183669       0.01000000
O        1.60186375      12.57535578       1.61876952      -0.00005408      -0.02319246      -0.59184101       0.01000000
O        4.80558165       6.10032948       1.61876952       0.00000197      -0.02319671      -0.59183466       0.01000000
O        4.80558165      12.57535578       1.61876952      -0.00001052      -0.02319399      -0.59183762       0.01000000
O        8.00929954       6.10032948       1.61876952       0.00005407      -0.02318202      -0.59183555       0.01000000
O        8.00929954      12.57535578       1.61876952       0.00006385      -0.02317633      -0.59183855       0.01000000
O        0.00000000       1.61875657       2.86282928      -0.00000711      -0.01780450       0.25931161       0.01000000
O        0.00000000       8.09378287       2.86282928      -0.00000652      -0.01780068       0.25932139       0.01000000
O        3.20371789       1.61875657       2.86282928       0.00007087      -0.01780447       0.25931755       0.01000000
O        3.20371789       8.09378287       2.86282928       0.00006772      -0.01780055       0.25931489       0.01000000
O        6.40744540       1.61875657       2.86282928      -0.00006273      -0.01780408       0.25932048       0.01000000
O        6.40744540       8.09378287       2.86282928      -0.00006021      -0.01780118       0.25933743       0.01000000
O        1.60186375       3.61220997       1.61876952      -0.00005674      -0.01442811      -0.58867603       0.01000000
O        1.60186375      10.08723627       1.61876952      -0.00005415      -0.01442158      -0.58867379       0.01000000
O        4.80558165       3.61220997       1.61876952       0.00000204      -0.01441978      -0.58867315       0.01000000
O        4.80558165      10.08723627       1.61876952      -0.00001076      -0.01441792      -0.58867080       0.01000000
O        8.00929954       3.61220997       1.61876952       0.00005380      -0.01443542      -0.58867410       0.01000000
O        8.00929954      10.08723627       1.61876952       0.00006411      -0.01443513      -0.58867172       0.01000000
O        0.00000000       4.85627296       3.61221968       0.00000367      -0.00235796      -0.07165994       0.01000000
O        0.00000000      11.33129926       3.61221968      -0.00001186      -0.00235882      -0.07167026       0.01000000
O        3.20371789       4.85627296       3.61221968       0.00006897      -0.00235878      -0.07167415       0.01000000
O        3.20371789      11.33129926       3.61221968       0.00007916      -0.00235791      -0.07169828       0.01000000
O        6.40744540       4.85627296       3.61221968      -0.00007378      -0.00235790      -0.07168700       0.01000000
O        6.40744540      11.33129926       3.61221968      -0.00006903      -0.00235882      -0.07165968       0.01000000
O        1.60186375       2.86281957       4.85627944      -0.00007261      -0.05703488       0.00480376       0.01000000
O        1.60186375       9.33784587       4.85627944      -0.00008057      -0.05704946       0.00480292       0.01000000
O        4.80558165       2.86281957       4.85627944       0.00000512      -0.05704802       0.00480337       0.01000000
O        4.80558165       9.33784587       4.85627944       0.00001780      -0.05704527       0.00480230       0.01000000
O        8.00929954       2.86281957       4.85627944       0.00006689      -0.05704891       0.00480121       0.01000000
O        8.00929954       9.33784587       4.85627944       0.00006213      -0.05704632       0.00480192       0.01000000
O        3.20371789       4.85627296       6.10033919       0.00006020      -0.03840941       0.47912807       0.01000000
O        3.20371789      11.33129926       6.10033919       0.00007071      -0.03840744       0.47914317       0.01000000
O        6.40744540       4.85627296       6.10033919      -0.00006644      -0.03840765       0.47913285       0.01000000
O        6.40744540      11.33129926       6.10033919      -0.00006214      -0.03840937       0.47912806       0.01000000
O        0.00000000       4.85627296       6.10033919       0.00000607      -0.03840821       0.47911850       0.01000000
O        0.00000000      11.33129926       6.10033919      -0.00000822      -0.03840892       0.47912892       0.01000000
O        1.60186375       0.37468711       4.85627944      -0.00007281       0.02102235      -0.02701673       0.01000000
O        1.60186375       6.84971341       4.85627944      -0.00007995       0.02100364      -0.02701674       0.01000000
O        4.80558165       0.37468711       4.85627944       0.00000715       0.02101505      -0.02701798       0.01000000
O        4.80558165       6.84971341       4.85627944       0.00001620       0.02101981      -0.02701661       0.01000000
O        8.00929954       0.37468711       4.85627944       0.00006529       0.02100949      -0.02701845       0.01000000
O        8.00929954       6.84971341       4.85627944       0.00006321       0.02102671      -0.02701873       0.01000000
O        0.00000000       1.61875010       6.84972960       0.00001139       0.06229841      -0.18973844       0.01000000
O        0.00000000       8.09377640       6.84972960       0.00000470       0.06229754      -0.18973855       0.01000000
O        3.20371789       1.61875010       6.84972960       0.00005853       0.06229846      -0.18972935       0.01000000
O        3.20371789       8.09377640       6.84972960       0.00005877       0.06229753      -0.18972160       0.01000000
O        6.40744540       1.61875010       6.84972960      -0.00007037       0.06229796      -0.18975092       0.01000000
O        6.40744540       8.09377640       6.84972960      -0.00006457       0.06229800      -0.18975669       0.01000000
O        1.60186375      -0.37731533       8.10325805      -0.00006551       0.02884247       0.05568396       0.01000000
O        1.60186375       6.09771097       8.10325805      -0.00006802       0.02885303       0.05568034       0.01000000
O        4.80558165      -0.37731533       8.10325805      -0.00000432       0.02882594       0.05568103       0.01000000
O        4.80558165       6.09771097       8.10325805       0.00000144       0.02883345       0.05567788       0.01000000
O        8.00929954      -0.37731533       8.10325805       0.00006924       0.02882772       0.05567973       0.01000000
O        8.00929954       6.09771097       8.10325805       0.00006591       0.02884303       0.05567704       0.01000000
O        3.20371789       1.61665123       9.32284557       0.00006818      -0.02160656       0.00484867       0.01000000
O        3.20371789       8.09167753       9.32284557       0.00006778      -0.02160459       0.00484814       0.01000000
O        6.40744540       1.61665123       9.32284557      -0.00008591      -0.02160662       0.00485032       0.01000000
O        6.40744540       8.09167753       9.32284557      -0.00008180      -0.02160459       0.00483121       0.01000000
O        0.00000000       1.61665123       9.32284557       0.00001853      -0.02160604       0.00483339       0.01000000
O        0.00000000       8.09167753       9.32284557       0.00001390      -0.02160452       0.00482169       0.01000000
O        1.60186375       3.61500178       8.10758747      -0.00006705      -0.02805219       0.00299180       0.01000000
O        1.60186375      10.09002808       8.10758747      -0.00006598      -0.02804064       0.00299478       0.01000000
O        4.80558165       3.61500178       8.10758747       0.00000111      -0.02803253       0.00298961       0.01000000
O        4.80558165      10.09002808       8.10758747      -0.00000419      -0.02802432       0.00299109       0.01000000
O        8.00929954       3.61500178       8.10758747       0.00006547      -0.02803279       0.00298934       0.01000000
O        8.00929954      10.09002808       8.10758747       0.00006952      -0.02803496       0.00298974       0.01000000
O        3.20371789       4.85807664      10.11071466       0.00005130       0.02308592      -0.06209687       0.01000000
O        3.20371789      11.33310294      10.11071466       0.00005102       0.02308871      -0.06210404       0.01000000
O        6.40744540       4.85807664      10.11071466      -0.00006276       0.02308561      -0.06210858       0.01000000
O        6.40744540      11.33310294      10.11071466      -0.00006201       0.02308919      -0.06210683       0.01000000
O        0.00000000       4.85807664      10.11071466       0.00001078       0.02308562      -0.06208787       0.01000000
O        0.00000000      11.33310294      10.11071466       0.00001127       0.02308879      -0.06209217       0.01000000
O        1.60186375       2.84933080      11.42574152      -0.00006703       0.04641907      -0.05993667       0.01000000
O        1.60186375       9.32435710      11.42574152      -0.00006288       0.04641875      -0.05992920       0.01000000
O        4.80558165       2.84933080      11.42574152       0.00000226       0.04640518      -0.05994771       0.01000000
O        4.80558165       9.32435710      11.42574152      -0.00000338       0.04640884      -0.05994028       0.01000000
O        8.00929954       2.84933080      11.42574152       0.00006444       0.04640200      -0.05993165       0.01000000
O        8.00929954       9.32435710      11.42574152       0.00006508       0.04640666      -0.05992389       0.01000000
O        3.20371789       4.85648194      12.57078746       0.00004306       0.02207449      -0.15265383       0.01000000
O        3.20371789      11.33150824      12.57078746       0.00004635       0.02207583      -0.15264768       0.01000000
O        6.40744540       4.85648194      12.57078746      -0.00006146       0.02207428      -0.15263650       0.01000000
O        6.40744540      11.33150824      12.57078746      -0.00006276       0.02207612      -0.15263114       0.01000000
O        0.00000000       4.85648194      12.57078746       0.00001791       0.02207409      -0.15267683       0.01000000
O        0.00000000      11.33150824      12.57078746       0.00001680       0.02207627      -0.15266500       0.01000000
O        1.60186375       0.39008872      11.42714573      -0.00006567      -0.05056734      -0.10280721       0.01000000
O        1.60186375       6.86511502      11.42714573      -0.00006196      -0.05056730      -0.10280747       0.01000000
O        4.80558165       0.39008872      11.42714573       0.00000182      -0.05055592      -0.10281864       0.01000000
O        4.80558165       6.86511502      11.42714573      -0.00000274      -0.05055520      -0.10281825       0.01000000
O        8.00929954       0.39008872      11.42714573       0.00006317      -0.05055097      -0.10280312       0.01000000
O        8.00929954       6.86511502      11.42714573       0.00006419      -0.05055409      -0.10280127       0.01000000
72
Lattice="6.427874638174196 0.0 0.0 0.0 9.61761207018 0.0 0.0 0.0 32.85574927634839" Properties=species:S:1:pos:R:3:DFT_forces:R:3:force_atom_sigma:R:1 density=4.399253 time=0.146 temp=515.8 md_energy=-664.47004 vasp_rundir=DFT_calcs/run_VASP_hvzrqohp DFT_energy=-277.17467443 DFT_stress_FOO="-0.0989084230369516 -0.3850989605390203 -0.23332837678865725 9.525042246827923e-07 1.433424985850349e-07 3.1207545629416294e-11" config_type=slab_MD_sample pbc="T T T"
O        3.21394000       1.60234000      11.66330000       0.00000690       0.02931214     -30.83064981       0.30830664
Ir       3.21394000       0.00000000      11.57720000      -0.00000063       0.00068970     -36.14558387       0.36145584
Ir       6.42787000       1.60275000      11.40520000       0.00004945       0.00956803       7.05164341       0.07051650
O        0.58490800       0.00000000      10.90590000      23.33564170       0.00027680      -4.79842162       0.23823875
O        5.84297000       0.00000000      10.90590000     -23.33564069       0.00027681      -4.79857991       0.23823906
O        3.21394000       1.60365000      12.71260000       0.00002656       0.14337427      24.23616628       0.24236590
O       -0.00000018       1.60216000      13.78180000       0.00011407      -0.00959650     -23.31775693       0.23317759
Ir       6.42787000       0.00000000      14.47310000      -0.00001527      -0.00022859       0.19825322       0.01000000
Ir       3.21394000       1.60317000      14.34630000      -0.00000637       0.02772483      22.09209149       0.22092109
O        3.78112000       0.00000000      13.18540000      28.51005759      -0.00004742      10.69460543       0.30449926
O        2.64676000       0.00000000      13.18540000     -28.51003928      -0.00004743      10.69459341       0.30449904
O        6.42787000       1.60237000      14.97690000      -0.00008167      -0.01663304      25.39573569       0.25395741
O        3.21394000       1.60371000      16.28580000       0.00001226       0.00114276       1.56426711       0.01564268
Ir       3.21394000       0.00000000      17.72620000      -0.00012314      -0.00002582      -4.05751328       0.04057513
Ir       6.42787000       1.60312000      17.78820000       0.00008006      -0.02400240      -0.49394402       0.01000000
O        1.22486000       0.00000000      17.57380000      -0.20226823      -0.00002016       0.58055017       0.01000000
O        5.20301000       0.00000000      17.57380000       0.20229769      -0.00002016       0.58057717       0.01000000
O        3.21394000       1.60267000      18.86920000       0.00001298      -0.00258839       1.62312589       0.01623128
O        6.42787000       1.60244000      19.72540000      -0.00000830       0.00293253       1.07004610       0.01070050
Ir       6.42787000       0.00000000      21.02390000       0.00014345      -0.00003513      -1.11603729       0.01116037
Ir       3.21394000       1.60257000      20.89010000      -0.00002379       0.01191335      -0.75655217       0.01000000
O        4.43107000       9.61761000      20.98360000       0.25744343       0.00001459       0.21629029       0.01000000
O        1.99681000       9.61761000      20.98360000      -0.25754867       0.00001461       0.21632923       0.01000000
O        6.42787000       1.60275000      22.19150000      -0.00001652       0.01452404       0.27562384       0.01000000
O        3.21394000       4.80881000      11.68140000       0.00002491      -0.00088474     -32.77704984       0.32777050
Ir       3.21394000       3.20527000      11.57620000      -0.00003392       0.27640005     -36.53358567       0.36534631
Ir       6.42787000       4.80881000      11.40550000       0.00003563      -0.00067893       6.99078657       0.06990787
O        0.58494000       3.20587000      10.90740000      23.33260119       0.01614319      -4.83628112       0.23828558
O        5.84293000       3.20587000      10.90740000     -23.33264458       0.01614311      -4.83632466       0.23828609
O        3.21394000       4.80881000      12.72060000       0.00001622      -0.00058343      25.82832447       0.25828324
O       -0.00000017       4.80881000      13.79620000       0.00012705      -0.00002243     -25.59059687       0.25590597
Ir       6.42787000       3.20446000      14.47210000      -0.00003048      -0.53023573       0.10700888       0.01000000
Ir       3.21394000       4.80881000      14.34630000       0.00000522      -0.00009527      22.96879976       0.22968800
O        3.78060000       3.21175000      13.18260000      28.75536007      -0.29923605      10.69718835       0.30682081
O        2.64727000       3.21175000      13.18260000     -28.75542177      -0.29923152      10.69695619       0.30682058
O        6.42787000       4.80881000      14.96400000      -0.00009264      -0.00000679      27.72472192       0.27724722
O        3.21394000       4.80881000      16.28610000       0.00000960      -0.00001381       1.59931301       0.01599313
Ir       3.21394000       3.20596000      17.72690000      -0.00012372       0.00426910      -4.06067705       0.04060679
Ir       6.42787000       4.80881000      17.78890000       0.00007978      -0.00016579      -0.44193137       0.01000000
O        1.22538000       3.20590000      17.57610000      -0.21436785       0.00575884       0.56893853       0.01000000
O        5.20249000       3.20590000      17.57610000       0.21439793       0.00575888       0.56896533       0.01000000
O        3.21394000       4.80881000      18.86940000       0.00001309      -0.00009265       1.62954649       0.01629546
O        6.42787000       4.80881000      19.72570000      -0.00000829      -0.00005574       1.06271989       0.01062720
Ir       6.42787000       3.20539000      21.02360000       0.00014357       0.00369607      -1.09826611       0.01098272
Ir       3.21394000       4.80881000      20.89030000      -0.00002382      -0.00018307      -0.75654576       0.01000000
O        4.43097000       3.20547000      20.98390000       0.25636094       0.00082834       0.21472443       0.01000000
O        1.99691000       3.20547000      20.98390000      -0.25646603       0.00082845       0.21476318       0.01000000
O        6.42787000       4.80881000      22.19120000      -0.00001657      -0.00006034       0.27070175       0.01000000
O        3.21394000       8.01528000      11.66330000       0.00000690      -0.03040967     -30.83067376       0.30830689
Ir       3.21394000       6.41234000      11.57620000      -0.00003394      -0.27437588     -36.53373694       0.36534767
Ir       6.42787000       8.01487000      11.40520000       0.00004944      -0.01076860       7.05159952       0.07051608
O        0.58494000       6.41174000      10.90740000      23.33259746      -0.01546321      -4.83627371       0.23828552
O        5.84293000       6.41174000      10.90740000     -23.33264085      -0.01546310      -4.83631724       0.23828603
O        3.21394000       8.01396000      12.71260000       0.00002656      -0.14379877      24.23615960       0.24236586
O       -0.00000018       8.01545000      13.78180000       0.00011407       0.01011137     -23.31799216       0.23317994
Ir       6.42787000       6.41316000      14.47210000      -0.00003047       0.52928719       0.10702748       0.01000000
Ir       3.21394000       8.01444000      14.34630000      -0.00000638      -0.02770665      22.09204946       0.22092067
O        3.78060000       6.40586000      13.18260000      28.75543752       0.29946658      10.69724069       0.30682174
O        2.64727000       6.40586000      13.18260000     -28.75549923       0.29946205      10.69700847       0.30682151
O        6.42787000       8.01524000      14.97690000      -0.00008167       0.01737382      25.39595863       0.25395965
O        3.21394000       8.01390000      16.28580000       0.00001225      -0.00115493       1.56424079       0.01564241
Ir       3.21394000       6.41165000      17.72690000      -0.00012370      -0.00416560      -4.06072492       0.04060727
Ir       6.42787000       8.01449000      17.78820000       0.00008006       0.02407724      -0.49395868       0.01000000
O        1.22538000       6.41171000      17.57610000      -0.21435463      -0.00569737       0.56892186       0.01000000
O        5.20249000       6.41171000      17.57610000       0.21438471      -0.00569739       0.56894867       0.01000000
O        3.21394000       8.01494000      18.86920000       0.00001297       0.00259176       1.62312186       0.01623124
O        6.42787000       8.01517000      19.72540000      -0.00000829      -0.00293602       1.07004765       0.01070052