2
Lattice="25.575000000000003 0.0 0.0 0.0 25.575000000000003 0.0 0.0 0.0 25.575000000000003" Properties=species:S:1:pos:R:3:DFT_forces:R:3:force_atom_sigma:R:1 config_type=dimer vasp_rundir=vasp/run_VASP_kf3rpqdr DFT_energy=-1.14203904 pbc="F F F"
H        0.00000000       0.00000000       0.00000000     -28.64015203       0.00000472       0.00000294       0.00400000
Ir       1.10825000       0.00000000       0.00000000      28.64015203      -0.00000472      -0.00000294       0.01600000
2
Lattice="25.575000000000003 0.0 0.0 0.0 25.575000000000003 0.0 0.0 0.0 25.575000000000003" Properties=species:S:1:pos:R:3:DFT_forces:R:3:force_atom_sigma:R:1 config_type=dimer vasp_rundir=vasp/run_VASP_8y08ho4i DFT_energy=-4.17185223 pbc="F F F"
H        0.00000000       0.00000000       0.00000000     -11.93220480       0.00008273      -0.00010437       0.00400000
Ir       1.26596250       0.00000000       0.00000000      11.93220480      -0.00008273       0.00010437       0.01600000
2
Lattice="25.575000000000003 0.0 0.0 0.0 25.575000000000003 0.0 0.0 0.0 25.575000000000003" Properties=species:S:1:pos:R:3:DFT_forces:R:3:force_atom_sigma:R:1 config_type=dimer vasp_rundir=vasp/run_VASP_8csagpw1 DFT_energy=-5.29432256 pbc="F F F"
H        0.00000000       0.00000000       0.00000000      -3.57863669       0.00062967      -0.00010605       0.00400000
Ir       1.42367500       0.00000000       0.00000000       3.57863669      -0.00062967       0.00010605       0.01600000
2
Lattice="25.575000000000003 0.0 0.0 0.0 25.575000000000003 0.0 0.0 0.0 25.575000000000003" Properties=species:S:1:pos:R:3:DFT_forces:R:3:force_atom_sigma:R:1 config_type=dimer vasp_rundir=vasp/run_VASP_znfy0gkx DFT_energy=-5.48097624 pbc="F F F"
H        0.00000000       0.00000000       0.00000000       0.49730439       0.00009984       0.00110514       0.00400000
Ir       1.58138750       0.00000000       0.00000000      -0.49730439      -0.00009984      -0.00110514       0.01600000
2
Lattice="25.575000000000003 0.0 0.0 0.0 25.575000000000003 0.0 0.0 0.0 25.575000000000003" Properties=species:S:1:pos:R:3:DFT_forces:R:3:force_atom_sigma:R:1 config_type=dimer vasp_rundir=vasp/run_VASP_g3epz9pp DFT_energy=-5.22531431 pbc="F F F"
H        0.00000000       0.00000000       0.00000000       2.36731662      -0.00008243      -0.00010894       0.00400000
Ir       1.73910000       0.00000000       0.00000000      -2.36731662       0.00008243       0.00010894       0.01600000
2
Lattice="25.575000000000003 0.0 0.0 0.0 25.575000000000003 0.0 0.0 0.0 25.575000000000003" Properties=species:S:1:pos:R:3:DFT_forces:R:3:force_atom_sigma:R:1 config_type=dimer vasp_rundir=vasp/run_VASP_nsloi8p2 DFT_energy=-4.77840525 pbc="F F F"
H        0.00000000       0.00000000       0.00000000       3.08433166       0.00003718       0.00002853       0.00400000
Ir       1.89681250       0.00000000       0.00000000      -3.08433166      -0.00003718      -0.00002853       0.01600000
2
Lattice="25.575000000000003 0.0 0.0 0.0 25.575000000000003 0.0 0.0 0.0 25.575000000000003" Properties=species:S:1:pos:R:3:DFT_forces:R:3:force_atom_sigma:R:1 config_type=dimer vasp_rundir=vasp/run_VASP_661vsz5u DFT_energy=-4.27317682 pbc="F F F"
H        0.00000000       0.00000000       0.00000000       3.22249811      -0.00002167      -0.00001401       0.00400000
Ir       2.05452500       0.00000000       0.00000000      -3.22249811       0.00002167       0.00001401       0.01600000
2
Lattice="25.575000000000003 0.0 0.0 0.0 25.575000000000003 0.0 0.0 0.0 25.575000000000003" Properties=species:S:1:pos:R:3:DFT_forces:R:3:force_atom_sigma:R:1 config_type=dimer vasp_rundir=vasp/run_VASP_bojuioor DFT_energy=-3.77438571 pbc="F F F"
H        0.00000000       0.00000000       0.00000000       3.05508445      -0.00001390       0.00007022       0.00400000
Ir       2.21223750       0.00000000       0.00000000      -3.05508445       0.00001390      -0.00007022       0.01600000
2
Lattice="25.575000000000003 0.0 0.0 0.0 25.575000000000003 0.0 0.0 0.0 25.575000000000003" Properties=species:S:1:pos:R:3:DFT_forces:R:3:force_atom_sigma:R:1 config_type=dimer vasp_rundir=vasp/run_VASP_dcgck8f5 DFT_energy=-3.31301714 pbc="F F F"
H        0.00000000       0.00000000       0.00000000       2.76426119      -0.00012098      -0.00004592       0.00400000
Ir       2.36995000       0.00000000       0.00000000      -2.76426119       0.00012098       0.00004592       0.01600000
2
Lattice="25.575000000000003 0.0 0.0 0.0 25.575000000000003 0.0 0.0 0.0 25.575000000000003" Properties=species:S:1:pos:R:3:DFT_forces:R:3:force_atom_sigma:R:1 config_type=dimer vasp_rundir=vasp/run_VASP_niiwtvj9 DFT_energy=-2.90174687 pbc="F F F"
H        0.00000000       0.00000000       0.00000000       2.43896953       0.00011927       0.00016817       0.00400000
Ir       2.52766250       0.00000000       0.00000000      -2.43896953      -0.00011927      -0.00016817       0.01600000
2
Lattice="25.575000000000003 0.0 0.0 0.0 25.575000000000003 0.0 0.0 0.0 25.575000000000003" Properties=species:S:1:pos:R:3:DFT_forces:R:3:force_atom_sigma:R:1 config_type=dimer vasp_rundir=vasp/run_VASP_31x7pr6m DFT_energy=-2.53991824 pbc="F F F"
H        0.00000000       0.00000000       0.00000000       2.13505257       0.00000156      -0.00025429       0.00400000
Ir       2.68537500       0.00000000       0.00000000      -2.13505257      -0.00000156       0.00025429       0.01600000
2
Lattice="25.575000000000003 0.0 0.0 0.0 25.575000000000003 0.0 0.0 0.0 25.575000000000003" Properties=species:S:1:pos:R:3:DFT_forces:R:3:force_atom_sigma:R:1 config_type=dimer vasp_rundir=vasp/run_VASP_ogt3q47y DFT_energy=-2.22231341 pbc="F F F"
H        0.00000000       0.00000000       0.00000000       1.87595591      -0.00004069       0.00006421       0.00400000
Ir       2.84308750       0.00000000       0.00000000      -1.87595591       0.00004069      -0.00006421       0.01600000
2
Lattice="25.575000000000003 0.0 0.0 0.0 25.575000000000003 0.0 0.0 0.0 25.575000000000003" Properties=species:S:1:pos:R:3:DFT_forces:R:3:force_atom_sigma:R:1 config_type=dimer vasp_rundir=vasp/run_VASP_vmlkq5kf DFT_energy=-1.94409327 pbc="F F F"
H        0.00000000       0.00000000       0.00000000       1.63125794      -0.00004045       0.00001207       0.00400000
Ir       3.00080000       0.00000000       0.00000000      -1.63125794       0.00004045      -0.00001207       0.01600000
2
Lattice="25.575000000000003 0.0 0.0 0.0 25.575000000000003 0.0 0.0 0.0 25.575000000000003" Properties=species:S:1:pos:R:3:DFT_forces:R:3:force_atom_sigma:R:1 config_type=dimer vasp_rundir=vasp/run_VASP_lmax233s DFT_energy=-1.70277793 pbc="F F F"
H        0.00000000       0.00000000       0.00000000       1.40988390       0.00005124       0.00003645       0.00400000
Ir       3.15851250       0.00000000       0.00000000      -1.40988390      -0.00005124      -0.00003645       0.01600000
2
Lattice="25.575000000000003 0.0 0.0 0.0 25.575000000000003 0.0 0.0 0.0 25.575000000000003" Properties=species:S:1:pos:R:3:DFT_forces:R:3:force_atom_sigma:R:1 config_type=dimer vasp_rundir=vasp/run_VASP_u0e8390v DFT_energy=-1.49760636 pbc="F F F"
H        0.00000000       0.00000000       0.00000000       1.19490958      -0.00018750       0.00183586       0.00400000
Ir       3.31622500       0.00000000       0.00000000      -1.19490958       0.00018750      -0.00183586       0.01600000
2
Lattice="25.575000000000003 0.0 0.0 0.0 25.575000000000003 0.0 0.0 0.0 25.575000000000003" Properties=species:S:1:pos:R:3:DFT_forces:R:3:force_atom_sigma:R:1 config_type=dimer vasp_rundir=vasp/run_VASP_4lu9s5gz DFT_energy=-1.25282325 pbc="F F F"
H        0.00000000       0.00000000       0.00000000       0.92031987      -0.00127158      -0.00093715       0.00400000
Ir       3.55279375       0.00000000       0.00000000      -0.92031987       0.00127158       0.00093715       0.01600000
2
Lattice="25.575000000000003 0.0 0.0 0.0 25.575000000000003 0.0 0.0 0.0 25.575000000000003" Properties=species:S:1:pos:R:3:DFT_forces:R:3:force_atom_sigma:R:1 config_type=dimer vasp_rundir=vasp/run_VASP_i_s0il6l DFT_energy=-1.12955798 pbc="F F F"
H        0.00000000       0.00000000       0.00000000       0.76515753       0.00132823       0.00670544       0.00400000
Ir       3.71050625       0.00000000       0.00000000      -0.76515753      -0.00132823      -0.00670544       0.01600000
2
Lattice="25.575000000000003 0.0 0.0 0.0 25.575000000000003 0.0 0.0 0.0 25.575000000000003" Properties=species:S:1:pos:R:3:DFT_forces:R:3:force_atom_sigma:R:1 config_type=dimer vasp_rundir=vasp/run_VASP_8e755wz7 DFT_energy=-1.02381804 pbc="F F F"
H        0.00000000       0.00000000       0.00000000       0.63409151      -0.00048763      -0.00251929       0.00400000
Ir       3.86821875       0.00000000       0.00000000      -0.63409151       0.00048763       0.00251929       0.01600000
2
Lattice="25.575000000000003 0.0 0.0 0.0 25.575000000000003 0.0 0.0 0.0 25.575000000000003" Properties=species:S:1:pos:R:3:DFT_forces:R:3:force_atom_sigma:R:1 config_type=dimer vasp_rundir=vasp/run_VASP_orc8s80y DFT_energy=-0.92216454 pbc="F F F"
H        0.00000000       0.00000000       0.00000000       0.52020966       0.00454088      -0.00344295       0.00400000
Ir       4.02593125       0.00000000       0.00000000      -0.52020966      -0.00454088       0.00344295       0.01600000
2
Lattice="25.575000000000003 0.0 0.0 0.0 25.575000000000003 0.0 0.0 0.0 25.575000000000003" Properties=species:S:1:pos:R:3:DFT_forces:R:3:force_atom_sigma:R:1 config_type=dimer vasp_rundir=vasp/run_VASP__5l3c55e DFT_energy=-0.84958108 pbc="F F F"
H        0.00000000       0.00000000       0.00000000       0.42635084      -0.00053182       0.00010813       0.00400000
Ir       4.18364375       0.00000000       0.00000000      -0.42635084       0.00053182      -0.00010813       0.01600000
2
Lattice="31.108249999999998 0.0 0.0 0.0 30.0 0.0 0.0 0.0 30.0" Properties=species:S:1:pos:R:3:DFT_forces:R:3:force_atom_sigma:R:1 config_type=dimer vasp_rundir=vasp/run_VASP_kwuvf2u8 DFT_energy=22.08427502 pbc="F F F"
O       14.53103124      15.00000000      15.00000000    -175.57511232       0.00000004       0.00000113       0.00800000
Ir      15.63928124      15.00000000      15.00000000     175.57511232      -0.00000004      -0.00000113       0.01600000
2
Lattice="31.27426316 0.0 0.0 0.0 30.0 0.0 0.0 0.0 30.0" Properties=species:S:1:pos:R:3:DFT_forces:R:3:force_atom_sigma:R:1 config_type=dimer vasp_rundir=vasp/run_VASP_wwa2saxm DFT_energy=2.28026932 pbc="F F F"
O       14.46078086      15.00000000      15.00000000     -74.86390514      -0.00000001       0.00000024       0.00800000
Ir      15.73504402      15.00000000      15.00000000      74.86390514       0.00000001      -0.00000024       0.01600000
2
Lattice="31.44027632 0.0 0.0 0.0 30.0 0.0 0.0 0.0 30.0" Properties=species:S:1:pos:R:3:DFT_forces:R:3:force_atom_sigma:R:1 config_type=dimer vasp_rundir=vasp/run_VASP_c6azwtk3 DFT_energy=-5.69023231 pbc="F F F"
O       14.39053048      15.00000000      15.00000000     -27.04181677       0.00000001      -0.00000112       0.00800000
Ir      15.83080680      15.00000000      15.00000000      27.04181677      -0.00000001       0.00000112       0.01600000
2
Lattice="32.27034211 0.0 0.0 0.0 30.0 0.0 0.0 0.0 30.0" Properties=species:S:1:pos:R:3:DFT_forces:R:3:force_atom_sigma:R:1 config_type=dimer vasp_rundir=vasp/run_VASP_vas9yic7 DFT_energy=-5.28430878 pbc="F F F"
O       14.03927857      15.00000000      15.00000000       5.48873894      -0.00258639       0.00284500       0.00800000
Ir      16.30962068      15.00000000      15.00000000      -5.48873894       0.00258639      -0.00284500       0.01600000
2
Lattice="32.43635526 0.0 0.0 0.0 30.0 0.0 0.0 0.0 30.0" Properties=species:S:1:pos:R:3:DFT_forces:R:3:force_atom_sigma:R:1 config_type=dimer vasp_rundir=vasp/run_VASP_jvne7h5y DFT_energy=-4.48896662 pbc="F F F"
O       13.96902819      15.00000000      15.00000000       4.63909539       0.00017229       0.00057900       0.00800000
Ir      16.40538345      15.00000000      15.00000000      -4.63909539      -0.00017229      -0.00057900       0.01600000
2
Lattice="32.60236842 0.0 0.0 0.0 30.0 0.0 0.0 0.0 30.0" Properties=species:S:1:pos:R:3:DFT_forces:R:3:force_atom_sigma:R:1 config_type=dimer vasp_rundir=vasp/run_VASP_a22rcu_c DFT_energy=-3.79804704 pbc="F F F"
O       13.89877781      15.00000000      15.00000000       3.77978767       0.00005474      -0.00000789       0.00800000
Ir      16.50114623      15.00000000      15.00000000      -3.77978767      -0.00005474       0.00000789       0.01600000
2
Lattice="32.768381579999996 0.0 0.0 0.0 30.0 0.0 0.0 0.0 30.0" Properties=species:S:1:pos:R:3:DFT_forces:R:3:force_atom_sigma:R:1 config_type=dimer vasp_rundir=vasp/run_VASP_tq7gz82x DFT_energy=-3.23244249 pbc="F F F"
O       13.82852743      15.00000000      15.00000000       3.11025887      -0.00000719      -0.00001210       0.00800000
Ir      16.59690901      15.00000000      15.00000000      -3.11025887       0.00000719       0.00001210       0.01600000
2
Lattice="32.93439474 0.0 0.0 0.0 30.0 0.0 0.0 0.0 30.0" Properties=species:S:1:pos:R:3:DFT_forces:R:3:force_atom_sigma:R:1 config_type=dimer vasp_rundir=vasp/run_VASP_a_7vh4es DFT_energy=-2.77331032 pbc="F F F"
O       13.75827705      15.00000000      15.00000000       2.54295939      -0.00003891       0.00001779       0.00800000
Ir      16.69267179      15.00000000      15.00000000      -2.54295939       0.00003891      -0.00001779       0.01600000
2
Lattice="33.10040789 0.0 0.0 0.0 30.0 0.0 0.0 0.0 30.0" Properties=species:S:1:pos:R:3:DFT_forces:R:3:force_atom_sigma:R:1 config_type=dimer vasp_rundir=vasp/run_VASP_q6a4mue_ DFT_energy=-2.39097523 pbc="F F F"
O       13.68802667      15.00000000      15.00000000       2.06577541      -0.00009367      -0.00016854       0.00800000
Ir      16.78843456      15.00000000      15.00000000      -2.06577541       0.00009367       0.00016854       0.01600000
2
Lattice="33.26642105 0.0 0.0 0.0 30.0 0.0 0.0 0.0 30.0" Properties=species:S:1:pos:R:3:DFT_forces:R:3:force_atom_sigma:R:1 config_type=dimer vasp_rundir=vasp/run_VASP_fq451bkt DFT_energy=-2.08399104 pbc="F F F"
O       13.61777629      15.00000000      15.00000000       1.67529821      -0.00011055      -0.00002404       0.00800000
Ir      16.88419734      15.00000000      15.00000000      -1.67529821       0.00011055       0.00002404       0.01600000
2
Lattice="33.43243421 0.0 0.0 0.0 30.0 0.0 0.0 0.0 30.0" Properties=species:S:1:pos:R:3:DFT_forces:R:3:force_atom_sigma:R:1 config_type=dimer vasp_rundir=vasp/run_VASP_zv0nswaf DFT_energy=-1.84124863 pbc="F F F"
O       13.54752591      15.00000000      15.00000000       1.33304354       0.00002029      -0.00000400       0.00800000
Ir      16.97996012      15.00000000      15.00000000      -1.33304354      -0.00002029       0.00000400       0.01600000
2
Lattice="33.59844737 0.0 0.0 0.0 30.0 0.0 0.0 0.0 30.0" Properties=species:S:1:pos:R:3:DFT_forces:R:3:force_atom_sigma:R:1 config_type=dimer vasp_rundir=vasp/run_VASP_6hf3meby DFT_energy=-1.63536216 pbc="F F F"
O       13.47727552      15.00000000      15.00000000       1.09745908       0.00085127       0.00025022       0.00800000
Ir      17.07572289      15.00000000      15.00000000      -1.09745908      -0.00085127      -0.00025022       0.01600000
2
Lattice="33.76446053 0.0 0.0 0.0 30.0 0.0 0.0 0.0 30.0" Properties=species:S:1:pos:R:3:DFT_forces:R:3:force_atom_sigma:R:1 config_type=dimer vasp_rundir=vasp/run_VASP_0ocehd5v DFT_energy=-1.47724087 pbc="F F F"
O       13.40702514      15.00000000      15.00000000       0.90785761       0.00002172       0.00005416       0.00800000
Ir      17.17148567      15.00000000      15.00000000      -0.90785761      -0.00002172      -0.00005416       0.01600000
2
Lattice="33.93047368 0.0 0.0 0.0 30.0 0.0 0.0 0.0 30.0" Properties=species:S:1:pos:R:3:DFT_forces:R:3:force_atom_sigma:R:1 config_type=dimer vasp_rundir=vasp/run_VASP_xk2lo6wg DFT_energy=-1.35434598 pbc="F F F"
O       13.33677477      15.00000000      15.00000000       0.68703736      -0.00089025       0.00020116       0.00800000
Ir      17.26724845      15.00000000      15.00000000      -0.68703736       0.00089025      -0.00020116       0.01600000
2
Lattice="34.09648684 0.0 0.0 0.0 30.0 0.0 0.0 0.0 30.0" Properties=species:S:1:pos:R:3:DFT_forces:R:3:force_atom_sigma:R:1 config_type=dimer vasp_rundir=vasp/run_VASP_pyprgo57 DFT_energy=-1.27403637 pbc="F F F"
O       13.26652438      15.00000000      15.00000000       0.51733942      -0.00029778      -0.00262171       0.00800000
Ir      17.36301122      15.00000000      15.00000000      -0.51733942       0.00029778       0.00262171       0.01600000
2
Lattice="34.2625 0.0 0.0 0.0 30.0 0.0 0.0 0.0 30.0" Properties=species:S:1:pos:R:3:DFT_forces:R:3:force_atom_sigma:R:1 config_type=dimer vasp_rundir=vasp/run_VASP_bwx_yxoc DFT_energy=-1.19112067 pbc="F F F"
O       13.19627400      15.00000000      15.00000000       0.40516669      -0.00000602      -0.00014192       0.00800000
Ir      17.45877400      15.00000000      15.00000000      -0.40516669       0.00000602       0.00014192       0.01600000
2
Lattice="31.43 0.0 0.0 0.0 30.0 0.0 0.0 0.0 30.0" Properties=species:S:1:pos:R:3:DFT_forces:R:3:force_atom_sigma:R:1 config_type=dimer vasp_rundir=vasp/run_VASP_4h0_6o8e DFT_energy=15.5309336 pbc="F F F"
Ir      15.00000000      15.00000000      15.00000000     -91.71013688      -0.00000010      -0.00000045       0.01600000
Ir      16.43000000      15.00000000      15.00000000      91.71013688       0.00000010       0.00000045       0.01600000
2
Lattice="31.64421053 0.0 0.0 0.0 30.0 0.0 0.0 0.0 30.0" Properties=species:S:1:pos:R:3:DFT_forces:R:3:force_atom_sigma:R:1 config_type=dimer vasp_rundir=vasp/run_VASP_w9armsf_ DFT_energy=1.85802103 pbc="F F F"
Ir      15.00000000      15.00000000      15.00000000     -42.87470780      -0.00000000      -0.00000087       0.01600000
Ir      16.64421053      15.00000000      15.00000000      42.87470780       0.00000000       0.00000087       0.01600000
2
Lattice="31.85842105 0.0 0.0 0.0 30.0 0.0 0.0 0.0 30.0" Properties=species:S:1:pos:R:3:DFT_forces:R:3:force_atom_sigma:R:1 config_type=dimer vasp_rundir=vasp/run_VASP_5b7_ggg1 DFT_energy=-4.31883475 pbc="F F F"
Ir      15.00000000      15.00000000      15.00000000     -16.99473589      -0.00000001      -0.00000029       0.01600000
Ir      16.85842105      15.00000000      15.00000000      16.99473589       0.00000001       0.00000029       0.01600000
2
Lattice="32.501052630000004 0.0 0.0 0.0 30.0 0.0 0.0 0.0 30.0" Properties=species:S:1:pos:R:3:DFT_forces:R:3:force_atom_sigma:R:1 config_type=dimer vasp_rundir=vasp/run_VASP_xun568wg DFT_energy=-5.75838256 pbc="F F F"
Ir      15.00000000      15.00000000      15.00000000       3.91449098      -0.00000118      -0.00000103       0.01600000
Ir      17.50105263      15.00000000      15.00000000      -3.91449098       0.00000118       0.00000103       0.01600000
2
Lattice="32.71526316 0.0 0.0 0.0 30.0 0.0 0.0 0.0 30.0" Properties=species:S:1:pos:R:3:DFT_forces:R:3:force_atom_sigma:R:1 config_type=dimer vasp_rundir=vasp/run_VASP_01yuw4jv DFT_energy=-4.8678166 pbc="F F F"
Ir      15.00000000      15.00000000      15.00000000       4.12551288      -0.00000037       0.00000065       0.01600000
Ir      17.71526316      15.00000000      15.00000000      -4.12551288       0.00000037      -0.00000065       0.01600000
2
Lattice="32.92947368 0.0 0.0 0.0 30.0 0.0 0.0 0.0 30.0" Properties=species:S:1:pos:R:3:DFT_forces:R:3:force_atom_sigma:R:1 config_type=dimer vasp_rundir=vasp/run_VASP_q_z_hi16 DFT_energy=-4.02570534 pbc="F F F"
Ir      15.00000000      15.00000000      15.00000000       3.65404686      -0.00000017       0.00000008       0.01600000
Ir      17.92947368      15.00000000      15.00000000      -3.65404686       0.00000017      -0.00000008       0.01600000
2
Lattice="33.14368421 0.0 0.0 0.0 30.0 0.0 0.0 0.0 30.0" Properties=species:S:1:pos:R:3:DFT_forces:R:3:force_atom_sigma:R:1 config_type=dimer vasp_rundir=vasp/run_VASP_kp62tvmd DFT_energy=-3.38233719 pbc="F F F"
Ir      15.00000000      15.00000000      15.00000000       2.98398825      -0.00000820      -0.00012750       0.01600000
Ir      18.14368421      15.00000000      15.00000000      -2.98398825       0.00000820       0.00012750       0.01600000
2
Lattice="33.35789474 0.0 0.0 0.0 30.0 0.0 0.0 0.0 30.0" Properties=species:S:1:pos:R:3:DFT_forces:R:3:force_atom_sigma:R:1 config_type=dimer vasp_rundir=vasp/run_VASP_hwfovuo9 DFT_energy=-2.86411358 pbc="F F F"
Ir      15.00000000      15.00000000      15.00000000       2.40477427       0.00032244      -0.00015496       0.01600000
Ir      18.35789474      15.00000000      15.00000000      -2.40477427      -0.00032244       0.00015496       0.01600000
2
Lattice="33.57210526 0.0 0.0 0.0 30.0 0.0 0.0 0.0 30.0" Properties=species:S:1:pos:R:3:DFT_forces:R:3:force_atom_sigma:R:1 config_type=dimer vasp_rundir=vasp/run_VASP_i97bhe9x DFT_energy=-2.42695154 pbc="F F F"
Ir      15.00000000      15.00000000      15.00000000       1.95801715       0.00017642       0.00048197       0.01600000
Ir      18.57210526      15.00000000      15.00000000      -1.95801715      -0.00017642      -0.00048197       0.01600000
2
Lattice="33.78631579 0.0 0.0 0.0 30.0 0.0 0.0 0.0 30.0" Properties=species:S:1:pos:R:3:DFT_forces:R:3:force_atom_sigma:R:1 config_type=dimer vasp_rundir=vasp/run_VASP_wpbfglbm DFT_energy=-2.04834621 pbc="F F F"
Ir      15.00000000      15.00000000      15.00000000       1.63093265       0.00015148       0.00019005       0.01600000
Ir      18.78631579      15.00000000      15.00000000      -1.63093265      -0.00015148      -0.00019005       0.01600000
2
Lattice="34.00052632 0.0 0.0 0.0 30.0 0.0 0.0 0.0 30.0" Properties=species:S:1:pos:R:3:DFT_forces:R:3:force_atom_sigma:R:1 config_type=dimer vasp_rundir=vasp/run_VASP_ik_6wpjd DFT_energy=-1.77204316 pbc="F F F"
Ir      15.00000000      15.00000000      15.00000000       1.33270030      -0.00029798       0.00037277       0.01600000
Ir      19.00052632      15.00000000      15.00000000      -1.33270030       0.00029798      -0.00037277       0.01600000
2
Lattice="34.21473684 0.0 0.0 0.0 30.0 0.0 0.0 0.0 30.0" Properties=species:S:1:pos:R:3:DFT_forces:R:3:force_atom_sigma:R:1 config_type=dimer vasp_rundir=vasp/run_VASP_j2kkab26 DFT_energy=-1.52762662 pbc="F F F"
Ir      15.00000000      15.00000000      15.00000000       1.07636481       0.00001688      -0.00001750       0.01600000
Ir      19.21473684      15.00000000      15.00000000      -1.07636481      -0.00001688       0.00001750       0.01600000
2
Lattice="34.42894737 0.0 0.0 0.0 30.0 0.0 0.0 0.0 30.0" Properties=species:S:1:pos:R:3:DFT_forces:R:3:force_atom_sigma:R:1 config_type=dimer vasp_rundir=vasp/run_VASP_4uxhicld DFT_energy=-1.3439751 pbc="F F F"
Ir      15.00000000      15.00000000      15.00000000       0.82358143      -0.00000956       0.00017938       0.01600000
Ir      19.42894737      15.00000000      15.00000000      -0.82358143       0.00000956      -0.00017938       0.01600000
2
Lattice="34.64315789 0.0 0.0 0.0 30.0 0.0 0.0 0.0 30.0" Properties=species:S:1:pos:R:3:DFT_forces:R:3:force_atom_sigma:R:1 config_type=dimer vasp_rundir=vasp/run_VASP_sn9fraxy DFT_energy=-1.17748536 pbc="F F F"
Ir      15.00000000      15.00000000      15.00000000       0.62755397       0.00028124       0.00127262       0.01600000
Ir      19.64315789      15.00000000      15.00000000      -0.62755397      -0.00028124      -0.00127262       0.01600000
2
Lattice="34.85736842 0.0 0.0 0.0 30.0 0.0 0.0 0.0 30.0" Properties=species:S:1:pos:R:3:DFT_forces:R:3:force_atom_sigma:R:1 config_type=dimer vasp_rundir=vasp/run_VASP_tvcgea9s DFT_energy=-1.0858264 pbc="F F F"
Ir      15.00000000      15.00000000      15.00000000       0.45121377      -0.00012196       0.00032052       0.01600000
Ir      19.85736842      15.00000000      15.00000000      -0.45121377       0.00012196      -0.00032052       0.01600000
2
Lattice="35.07157895 0.0 0.0 0.0 30.0 0.0 0.0 0.0 30.0" Properties=species:S:1:pos:R:3:DFT_forces:R:3:force_atom_sigma:R:1 config_type=dimer vasp_rundir=vasp/run_VASP_85mpo1vt DFT_energy=-1.10075624 pbc="F F F"
Ir      15.00000000      15.00000000      15.00000000       0.29916046      -0.00035294      -0.00001133       0.01600000
Ir      20.07157895      15.00000000      15.00000000      -0.29916046       0.00035294       0.00001133       0.01600000
2
Lattice="35.28578947 0.0 0.0 0.0 30.0 0.0 0.0 0.0 30.0" Properties=species:S:1:pos:R:3:DFT_forces:R:3:force_atom_sigma:R:1 config_type=dimer vasp_rundir=vasp/run_VASP_hex6bx3m DFT_energy=-0.97921101 pbc="F F F"
Ir      15.00000000      15.00000000      15.00000000       0.22094532      -0.00044402       0.00000201       0.01600000
Ir      20.28578947      15.00000000      15.00000000      -0.22094532       0.00044402      -0.00000201       0.01600000
2
Lattice="35.5 0.0 0.0 0.0 30.0 0.0 0.0 0.0 30.0" Properties=species:S:1:pos:R:3:DFT_forces:R:3:force_atom_sigma:R:1 config_type=dimer vasp_rundir=vasp/run_VASP_nnmnou5j DFT_energy=-1.12054214 pbc="F F F"
Ir      15.00000000      15.00000000      15.00000000       0.15563238       0.00155250       0.00097097       0.01600000
Ir      20.50000000      15.00000000      15.00000000      -0.15563238      -0.00155250      -0.00097097       0.01600000
2
Lattice="30.35 0.0 0.0 0.0 30.0 0.0 0.0 0.0 30.0" Properties=species:S:1:pos:R:3:DFT_forces:R:3:force_atom_sigma:R:1 config_type=dimer vasp_rundir=vasp/run_VASP_7_bk058o DFT_energy=1.9882724 DFT_stress_FOO="-0.0010422631115202452 3.268260148113628e-06 3.268260148113628e-06 -0.0 0.0 -0.0" pbc="T T T"
H       15.00000000      15.00000000      15.00000000     -81.46406478      -0.00000000       0.00000003       0.00400000
H       15.35000000      15.00000000      15.00000000      81.46406478       0.00000000      -0.00000003       0.00400000
2
Lattice="30.3875 0.0 0.0 0.0 30.0 0.0 0.0 0.0 30.0" Properties=species:S:1:pos:R:3:DFT_forces:R:3:force_atom_sigma:R:1 config_type=dimer vasp_rundir=vasp/run_VASP_40_vv3u9 DFT_energy=-0.63077832 DFT_stress_FOO="-0.000840965111154367 2.876642899519209e-06 2.876642899519209e-06 0.0 -0.0 0.0" pbc="T T T"
H       15.00000000      15.00000000      15.00000000     -59.42281513      -0.00000000      -0.00000005       0.00400000
H       15.38750000      15.00000000      15.00000000      59.42281513       0.00000000       0.00000005       0.00400000
2
Lattice="30.425 0.0 0.0 0.0 30.0 0.0 0.0 0.0 30.0" Properties=species:S:1:pos:R:3:DFT_forces:R:3:force_atom_sigma:R:1 config_type=dimer vasp_rundir=vasp/run_VASP_9_5_ry__ DFT_energy=-2.54347689 DFT_stress_FOO="-0.0006732639373188387 2.4979642993427458e-06 2.4979642993427458e-06 -0.0 0.0 0.0" pbc="T T T"
H       15.00000000      15.00000000      15.00000000     -43.41914262       0.00000000      -0.00000003       0.00400000
H       15.42500000      15.00000000      15.00000000      43.41914262      -0.00000000       0.00000003       0.00400000
2
Lattice="30.4625 0.0 0.0 0.0 30.0 0.0 0.0 0.0 30.0" Properties=species:S:1:pos:R:3:DFT_forces:R:3:force_atom_sigma:R:1 config_type=dimer vasp_rundir=vasp/run_VASP_4o6x2hnf DFT_energy=-3.93978926 DFT_stress_FOO="-0.0005332509468109698 2.162096210260716e-06 2.162096210260716e-06 0.0 0.0 -0.0" pbc="T T T"
H       15.00000000      15.00000000      15.00000000     -31.64117133      -0.00000000       0.00000004       0.00400000
H       15.46250000      15.00000000      15.00000000      31.64117133       0.00000000      -0.00000004       0.00400000
2
Lattice="30.5 0.0 0.0 0.0 30.0 0.0 0.0 0.0 30.0" Properties=species:S:1:pos:R:3:DFT_forces:R:3:force_atom_sigma:R:1 config_type=dimer vasp_rundir=vasp/run_VASP_wkbw_rgh DFT_energy=-4.95424298 DFT_stress_FOO="-0.00041628568994283004 1.9111625773637055e-06 1.9111625773637055e-06 0.0 -0.0 -0.0" pbc="T T T"
H       15.00000000      15.00000000      15.00000000     -22.88948526      -0.00000000       0.00000006       0.00400000
H       15.50000000      15.00000000      15.00000000      22.88948526       0.00000000      -0.00000006       0.00400000
2
Lattice="30.5375 0.0 0.0 0.0 30.0 0.0 0.0 0.0 30.0" Properties=species:S:1:pos:R:3:DFT_forces:R:3:force_atom_sigma:R:1 config_type=dimer vasp_rundir=vasp/run_VASP_33pcmcvs DFT_energy=-5.68385814 DFT_stress_FOO="-0.0003185239026551148 1.7293598995449778e-06 1.7293598995449778e-06 -0.0 0.0 -0.0" pbc="T T T"
H       15.00000000      15.00000000      15.00000000     -16.33535211      -0.00000000       0.00000001       0.00400000
H       15.53750000      15.00000000      15.00000000      16.33535211       0.00000000      -0.00000001       0.00400000
2
Lattice="31.1125 0.0 0.0 0.0 30.0 0.0 0.0 0.0 30.0" Properties=species:S:1:pos:R:3:DFT_forces:R:3:force_atom_sigma:R:1 config_type=dimer vasp_rundir=vasp/run_VASP_1r2nfqnq DFT_energy=-5.78885273 DFT_stress_FOO="0.00018662164090916687 9.097124381157366e-07 9.097124381157366e-07 0.0 -0.0 -0.0" pbc="T T T"
H       15.00000000      15.00000000      15.00000000       4.67367470      -0.00000000      -0.00000001       0.00400000
H       16.11250000      15.00000000      15.00000000      -4.67367470       0.00000000       0.00000001       0.00400000
2
Lattice="31.15875 0.0 0.0 0.0 30.0 0.0 0.0 0.0 30.0" Properties=species:S:1:pos:R:3:DFT_forces:R:3:force_atom_sigma:R:1 config_type=dimer vasp_rundir=vasp/run_VASP__rc361a6 DFT_energy=-5.57162852 DFT_stress_FOO="0.00019565877190460624 8.7938494527307e-07 8.7938494527307e-07 0.0 -0.0 0.0" pbc="T T T"
H       15.00000000      15.00000000      15.00000000       4.71082924      -0.00000000       0.00000003       0.00400000
H       16.15875000      15.00000000      15.00000000      -4.71082924       0.00000000      -0.00000003       0.00400000
2