/raven/ptmp/nbapat/surf/coverage/mirror/n_OH/24_OH/sim_0/mix.lmps (written by ASE) 

2172 	 atoms 
3  atom types
0.0      19.222326580000001  xlo xhi
0.0      25.900105199999999  ylo yhi
0.0      46.423524480000005  zlo zhi


Atoms 

     1   0   1   0.0                1.404236      6.7417280000000002             36.02629735
     2   0   1   0.0      2.4804689999999998      5.8895879999999998      36.910841349999998
     3   0   3   0.0      2.3621460000000001      6.6773759999999998      36.306268349999996
     4   0   1   0.0     0.88588699999999998      18.530014000000001      20.607251349999999
     5   0   1   0.0      1.9175340000000001      17.299821000000001      20.905857349999998
     6   0   3   0.0      1.6870609999999999      18.245836000000001             21.13401335
     7   0   1   0.0      1.7379849999999999      13.072673999999999      31.045265349999998
     8   0   1   0.0      2.8377479999999999               13.943425      30.209112349999995
     9   0   3   0.0      1.8617440000000001      13.811355000000001      30.382580349999994
    10   0   1   0.0      4.0072409999999996               11.928239      10.618218349999999
    11   0   1   0.0      2.8109190000000002               12.920264      10.116682349999998
    12   0   3   0.0                3.169727      11.987723000000001      10.074942349999997
    13   0   1   0.0      11.785373999999999      5.1104820000000002      24.468594349999996
    14   0   1   0.0      11.855624000000001      3.6049030000000002      25.097190349999998
    15   0   3   0.0      11.286865000000001      4.4210019999999997      24.994162349999996
    16   0   1   0.0      6.5419729999999996      11.983002000000001             17.80861835
    17   0   1   0.0      5.3413019999999998               12.282086      16.742891349999997
    18   0   3   0.0      6.1671420000000001               11.744256      16.912728349999998
    19   0   1   0.0               11.076513               21.565175      34.741857350000004
    20   0   1   0.0                10.45542      22.871172999999999      33.983273350000005
    21   0   3   0.0               10.844035      22.532834000000001      34.840375350000002
    22   0   1   0.0      13.917661000000001      24.118773999999998             19.68419535
    23   0   1   0.0               15.047765      24.997354999999999      18.898194350000001
    24   0   3   0.0      14.204280000000001      24.470493000000001      18.792983349999997
    25   0   1   0.0               14.404047      7.3278619999999997      12.817664349999998
    26   0   1   0.0      13.178751999999999      6.3511879999999996      13.277657349999998
    27   0   3   0.0      13.613886000000001      6.8039889999999996             12.49936035
    28   0   1   0.0      5.1267719999999999                1.128603      15.740412349999996
    29   0   1   0.0      5.0697130000000001                1.527938             17.32285035
    30   0   3   0.0      4.7062099999999996     0.91408599999999995      16.622016349999999
    31   0   1   0.0      8.0949600000000004      20.225377999999999      21.827608349999998
    32   0   1   0.0      9.5827100000000005      19.956175999999999      22.444832349999999
    33   0   3   0.0      8.9833440000000007      20.639047999999999      22.027024349999998
    34   0   1   0.0      9.6611790000000006      2.7324389999999998      11.854847349999996
    35   0   1   0.0      8.4872829999999997                1.812802             11.18921035
    36   0   3   0.0      9.0852339999999998                1.924974      11.982929349999999
    37   0   1   0.0      9.9102739999999994      23.689679000000002             16.28438135
    38   0   1   0.0      9.8327779999999994      23.458690000000001      17.899149349999998
    39   0   3   0.0                 9.66934      23.040220000000001             17.00567835
    40   0   1   0.0               15.440049                1.956879             26.29810135
    41   0   1   0.0      15.918549000000001      1.3244499999999999      27.725654349999996
    42   0   3   0.0      16.210439999999998      1.8505830000000001      26.926842349999998
    43   0   1   0.0      7.9962869999999997      17.984649999999998      25.586821349999997
    44   0   1   0.0      9.5123060000000006      17.395313000000002      25.441206349999998
    45   0   3   0.0      8.9668969999999995               18.224484      25.564174349999998
    46   0   1   0.0                4.752586               13.510857      12.333317349999998
    47   0   1   0.0                3.566557      14.527070999999999      11.856367349999999
    48   0   3   0.0      3.8561160000000001               13.570594      11.894124349999998
    49   0   1   0.0      12.501054999999999      3.4275980000000001             14.12699735
    50   0   1   0.0               11.915896      2.2706919999999999      13.134025349999998
    51   0   3   0.0               11.871331                 3.24078      13.372899349999997
    52   0   1   0.0      11.344602999999999                6.920407      23.416543349999998
    53   0   1   0.0      9.8410250000000001      7.3784320000000001      22.973484349999996
    54   0   3   0.0      10.405072000000001      7.0530099999999996      23.732476349999999
    55   0   1   0.0      17.734508999999999      7.5005059999999997      36.037531350000002
    56   0   1   0.0      17.627020999999999      5.9326819999999998      36.481616350000003
    57   0   3   0.0      18.254816999999999      6.6936200000000001      36.317409350000005
    58   0   1   0.0      7.8147710000000004      7.3933770000000001      27.589895350000003
    59   0   1   0.0      8.6877659999999999      6.0281960000000003      27.387423350000002
    60   0   3   0.0      8.5986259999999994      6.8686340000000001      27.922058349999997
    61   0   1   0.0      2.9848349999999999               19.540257      13.579912349999997
    62   0   1   0.0      2.0654059999999999      18.452822000000001      12.780555349999997
    63   0   3   0.0                  2.0566               19.318652      13.280933349999998
    64   0   1   0.0      4.4006860000000003               15.084019      21.495422349999998
    65   0   1   0.0      5.1142399999999997      15.179285999999999      22.961233349999997
    66   0   3   0.0      5.2359039999999997               14.892362      22.010975349999999
    67   0   1   0.0      16.703610999999999      3.0329890000000002      14.304201349999996
    68   0   1   0.0      18.324321999999999      3.1781540000000001      14.166143349999999
    69   0   3   0.0               17.551848      3.2197309999999999      14.799921349999998
    70   0   1   0.0      13.098126000000001      9.1915270000000007      32.072559350000006
    71   0   1   0.0      14.686522999999999      9.4568180000000002      32.343579349999999
    72   0   3   0.0      13.787231999999999      9.8883639999999993      32.271727350000006
    73   0   1   0.0      7.6174850000000003      5.9462609999999998             11.66488635
    74   0   1   0.0      8.7582529999999998      5.0429019999999998      12.406121349999996
    75   0   3   0.0      8.3249960000000005      5.9435789999999997      12.371666349999998
    76   0   1   0.0      3.7590159999999999      5.1020469999999998      24.235936349999999
    77   0   1   0.0      4.7253939999999997      6.2885520000000001      23.665713349999997
    78   0   3   0.0      4.5975440000000001                5.298635      23.727666349999996
    79   0   1   0.0      3.0325000000000002      18.364633000000001       9.542975349999999
    80   0   1   0.0      2.3485149999999999               16.933474      9.1546653499999984
    81   0   3   0.0      2.1662910000000002      17.885511999999999      9.4007063499999965
    82   0   1   0.0               14.935418      7.5771139999999999      16.718066349999997
    83   0   1   0.0      14.951394000000001      9.2049640000000004             16.84723035
    84   0   3   0.0               15.520146                8.387575      16.754961349999999
    85   0   1   0.0                6.221705      16.957581000000001      10.738498349999997
    86   0   1   0.0      6.9599710000000004                17.37351      12.134493349999996
    87   0   3   0.0      7.1051760000000002               17.062213      11.195276349999997
    88   0   1   0.0      12.656173000000001      16.553685999999999      19.156314349999999
    89   0   1   0.0               12.016505      17.982475000000001             18.69131835
    90   0   3   0.0      12.867418000000001      17.478225999999999      18.838953350000001
    91   0   1   0.0      3.4396460000000002               12.875441      24.155737349999999
    92   0   1   0.0      4.9033040000000003               13.195713      23.506147349999996
    93   0   3   0.0      4.0297729999999996      13.593590000000001      23.786782349999999
    94   0   1   0.0               11.916439      3.3719779999999999      10.274617349999996
    95   0   1   0.0      10.726971000000001      4.4894619999999996      10.217787349999998
    96   0   3   0.0                11.12185                3.743849      10.754676349999997
    97   0   1   0.0      5.2602719999999996                2.527317      29.242301350000002
    98   0   1   0.0                6.536556      1.5672680000000001      29.583241349999998
    99   0   3   0.0      6.0625340000000003                2.413052      29.828333349999998
   100   0   1   0.0               14.480727      21.812909000000001      13.340039349999998
   101   0   1   0.0      14.391427999999999                23.44061      13.242830349999998
   102   0   3   0.0      15.003092000000001      22.651520999999999      13.185181349999997
   103   0   1   0.0      9.9880099999999992               11.351756      22.834919349999996
   104   0   1   0.0      8.5882450000000006               11.074871      23.629166349999998
   105   0   3   0.0      9.3080269999999992      11.746423999999999      23.452961349999999
   106   0   1   0.0               14.637644      4.4763419999999998      14.691995349999999
   107   0   1   0.0               14.502089      5.9934269999999996      15.280989349999999
   108   0   3   0.0      14.851502999999999                5.074516      15.464374349999996
   109   0   1   0.0                12.92285      8.5450859999999995      15.947025350000001
   110   0   1   0.0               11.729918      8.8632439999999999      14.878135349999997
   111   0   3   0.0      11.944081000000001      8.7231240000000003      15.844891349999997
   112   0   1   0.0      17.288419999999999      23.136296999999999      22.067633349999998
   113   0   1   0.0      18.043759999999999               21.924802      22.860461349999998
   114   0   3   0.0               17.322903      22.146121999999998             22.20357435
   115   0   1   0.0      16.276516000000001               15.483172      28.762626350000001
   116   0   1   0.0               16.398906      14.798368999999999      27.285162349999997
   117   0   3   0.0               16.817166               15.446016      27.922131349999997
   118   0   1   0.0               10.274619               11.691438      9.9559753499999992
   119   0   1   0.0      10.952538000000001      10.729613000000001      11.088298349999999
   120   0   3   0.0               10.288264               10.768888             10.34176235
   121   0   1   0.0               10.771646      14.642925999999999      12.465739349999996
   122   0   1   0.0      9.4527160000000006               15.309818             11.77110635
   123   0   3   0.0      10.121942000000001               15.401987      12.508506349999998
   124   0   1   0.0               10.261968      11.041358000000001      17.666007349999997
   125   0   1   0.0      11.612494999999999               10.207575      17.281666349999998
   126   0   3   0.0               10.765487               10.189912      17.813063349999997
   127   0   1   0.0               15.792441      11.114281999999999      31.557697349999994
   128   0   1   0.0      16.835290000000001               11.946954      32.498951349999999
   129   0   3   0.0      16.743314999999999      11.183446999999999      31.859642349999998
   130   0   1   0.0               15.003534      24.184477999999999      15.132026349999997
   131   0   1   0.0               13.603591      24.828523000000001      14.591468349999996
   132   0   3   0.0      14.429290999999999      25.003223999999999             15.12795435
   133   0   1   0.0               12.305128      13.130420000000001      32.321614350000004
   134   0   1   0.0      12.253603999999999      12.559124000000001      33.850602350000003
   135   0   3   0.0      11.703260999999999               12.883317      33.081095349999998
   136   0   1   0.0      9.1269209999999994      3.5934970000000002      30.835505350000002
   137   0   1   0.0      8.3478729999999999      2.5807030000000002      29.818565349999997
   138   0   3   0.0      8.7412139999999994      2.6765219999999998      30.733015349999999
   139   0   1   0.0               11.721931               23.965819      22.880599350000001
   140   0   1   0.0      12.466347000000001      22.686838000000002      23.571171349999997
   141   0   3   0.0               11.708055      22.971267000000001      22.984477349999999
   142   0   1   0.0               13.102109      22.460906999999999      10.112239349999999
   143   0   1   0.0               14.709571      22.522099999999998      9.8308913499999981
   144   0   3   0.0               13.992614               22.093477      10.380776349999998
   145   0   1   0.0               14.185629      1.9954480000000001      13.439887349999999
   146   0   1   0.0               13.663751     0.89965499999999998      14.532461349999998
   147   0   3   0.0      13.939228999999999      1.8516280000000001      14.398386349999999
   148   0   1   0.0      17.321283000000001      7.5935730000000001      28.920788349999999
   149   0   1   0.0      16.638736000000002      6.8825099999999999      27.618730349999996
   150   0   3   0.0               17.036887      7.7292829999999997             27.97167335
   151   0   1   0.0      7.5625489999999997      24.196162999999999      32.543716349999997
   152   0   1   0.0      5.9724000000000004      23.826343999999999      32.505020350000002
   153   0   3   0.0      6.7625549999999999      23.972132999999999      33.100436350000003
   154   0   1   0.0      5.0086459999999997      5.6541740000000003      20.390585349999998
   155   0   1   0.0      6.4754719999999999      4.9369490000000003             20.36147935
   156   0   3   0.0      5.8716629999999999      5.5400549999999997      20.882820349999999
   157   0   1   0.0      18.019742999999998      4.1614279999999999      21.634257349999999
   158   0   1   0.0               17.619564      5.5485110000000004      22.397602349999996
   159   0   3   0.0      18.329840000000001      4.8533540000000004      22.286327349999997
   160   0   1   0.0      8.1211990000000007               22.764699      36.903188350000001
   161   0   1   0.0      9.7120149999999992      22.399660000000001      36.849455349999999
   162   0   3   0.0      8.7868580000000005      22.019953000000001      36.854533349999997
   163   0   1   0.0      9.4995320000000003      3.0416370000000001             33.37979335
   164   0   1   0.0      9.3668969999999998      4.6686509999999997      33.334302350000002
   165   0   3   0.0      9.6756419999999999      3.8602539999999999      32.833014349999999
   166   0   1   0.0      13.516329000000001               19.948974      17.855125349999998
   167   0   1   0.0               14.365985      21.318850000000001      18.116585349999998
   168   0   3   0.0               13.448058                 20.9284             18.04534035
   169   0   1   0.0      5.0520560000000003      24.016902999999999      9.0613513499999989
   170   0   1   0.0      4.5081449999999998      23.785443000000001      10.583659349999998
   171   0   3   0.0      4.7300899999999997      23.335387999999998      9.7186113499999998
   172   0   1   0.0      12.545953000000001      18.807953999999999      27.165306349999998
   173   0   1   0.0               11.514733      19.906341000000001      27.795359349999995
   174   0   3   0.0      12.464710999999999      19.594329999999999      27.777783349999996
   175   0   1   0.0      6.9541130000000004      9.9971929999999993      24.919198349999998
   176   0   1   0.0                 6.13659      8.6444600000000005      25.329815350000001
   177   0   3   0.0      6.8224960000000001      9.0278899999999993      24.711242349999999
   178   0   1   0.0      1.1859820000000001      3.8921839999999999             36.34858535
   179   0   1   0.0                2.260742      4.5715479999999999      35.323796350000002
   180   0   3   0.0      1.2897419999999999      4.4068110000000003      35.497403349999999
   181   0   1   0.0      11.525700000000001               18.818735      29.574166349999995
   182   0   1   0.0               11.952582      20.370996000000002      29.848202349999998
   183   0   3   0.0      11.710198999999999      19.502334999999999      30.280401350000002
   184   0   1   0.0      7.0782949999999998      2.7261630000000001      33.661181350000007
   185   0   1   0.0      7.2987250000000001      4.3338130000000001      33.477585349999998
   186   0   3   0.0      6.9599700000000002                3.500858      33.039922349999998
   187   0   1   0.0                6.049023               11.867063      27.962800349999998
   188   0   1   0.0                5.853631               13.010707      29.112034349999998
   189   0   3   0.0      6.5059760000000004               12.382572      28.687756349999997
   190   0   1   0.0      12.466476999999999      12.021909000000001      36.561311349999997
   191   0   1   0.0               13.489651               12.750563      35.517751349999998
   192   0   3   0.0               13.176304                12.72002      36.466961350000005
   193   0   1   0.0      3.9918770000000001                5.521909      17.020862349999998
   194   0   1   0.0      4.0623560000000003      6.5940149999999997      15.791042349999998
   195   0   3   0.0      3.4738850000000001      5.9503300000000001      16.280419349999999
   196   0   1   0.0      3.9592149999999999      8.7403630000000003      25.490814349999997
   197   0   1   0.0      3.3472390000000001      7.2698119999999999      25.851092349999998
   198   0   3   0.0      3.4551159999999999      7.9552180000000003      25.130885349999996
   199   0   1   0.0               13.147169      1.8985970000000001      22.468623349999998
   200   0   1   0.0      11.528945999999999      1.6793070000000001      22.458520349999997
   201   0   3   0.0               12.413643      1.2263200000000001      22.569120349999999
   202   0   1   0.0      18.244513000000001                2.784948      32.192279350000007
   203   0   1   0.0      17.442734999999999                1.424701             32.60907435
   204   0   3   0.0      18.328220000000002                1.798327             32.33260035
   205   0   1   0.0      16.811136999999999                10.21564      14.062277349999999
   206   0   1   0.0      16.154720000000001      8.9407859999999992             14.84374935
   207   0   3   0.0      16.067111000000001      9.5474589999999999      14.053565349999996
   208   0   1   0.0      10.522202999999999     0.91724799999999995      29.831827349999994
   209   0   1   0.0      10.304100999999999                 0.91879      31.450241349999995
   210   0   3   0.0      9.8412330000000008     0.89855399999999996      30.563979349999993
   211   0   1   0.0      15.735531999999999               24.297594      33.838590350000004
   212   0   1   0.0      17.105464000000001      23.414947999999999      33.943759350000001
   213   0   3   0.0      16.263598999999999      23.675357999999999             34.41659035
   214   0   1   0.0      2.6296300000000001      5.4398799999999996             13.23726735
   215   0   1   0.0      4.2561619999999998      5.5655469999999996      13.311015349999998
   216   0   3   0.0                3.493233      5.0803580000000004      12.883641349999998
   217   0   1   0.0      9.7664240000000007      20.973020000000002      15.587767349999996
   218   0   1   0.0               11.318006      20.521674999999998             15.35171935
   219   0   3   0.0      10.718878999999999      21.276206999999999      15.619764349999997
   220   0   1   0.0      8.4958799999999997      15.643285000000001       9.374373349999999
   221   0   1   0.0      6.8946319999999996      15.322628999999999      9.3696013499999964
   222   0   3   0.0      7.5824259999999999      16.045414000000001      9.4377153499999977
   223   0   1   0.0      4.3263590000000001      7.6594879999999996      12.054555349999998
   224   0   1   0.0      2.7181489999999999      7.8271790000000001      11.825697349999999
   225   0   3   0.0                3.514424      7.2527569999999999      11.635690349999997
   226   0   1   0.0               14.022062               13.107469      21.722764349999999
   227   0   1   0.0               12.615608               12.277925      21.698643349999998
   228   0   3   0.0      13.610094999999999               12.197257             21.76651335
   229   0   1   0.0      17.415216999999998               18.949251      9.4597113499999992
   230   0   1   0.0      18.188079999999999      20.382771000000002      9.5802793499999979
   231   0   3   0.0      18.307953999999999      19.390312999999999      9.5524493499999998
   232   0   1   0.0      6.2042809999999999               14.762361      17.855464349999998
   233   0   1   0.0      7.4967839999999999      13.966454000000001      17.253132349999998
   234   0   3   0.0      6.4976159999999998      14.001982999999999      17.275898349999999
   235   0   1   0.0      3.2471760000000001      4.5503790000000004      30.915701350000003
   236   0   1   0.0      3.1278109999999999      3.1117219999999999      30.152251349999997
   237   0   3   0.0      3.4572129999999999      3.5744470000000002             30.97535435
   238   0   1   0.0      6.4423050000000002               16.769572      18.581065349999999
   239   0   1   0.0      5.8379849999999998               18.143348      17.937346349999999
   240   0   3   0.0      6.0536659999999998      17.667062000000001      18.789843349999998
   241   0   1   0.0      3.5844040000000001               14.588298      36.840576350000006
   242   0   1   0.0      2.6696360000000001      14.213564999999999             35.54072635
   243   0   3   0.0      3.1667360000000002               13.840588      36.324243350000003
   244   0   1   0.0      5.3068200000000001      2.6063480000000001      36.388117350000002
   245   0   1   0.0      5.5984509999999998      4.1760849999999996      36.731210349999998
   246   0   3   0.0      4.9080279999999998      3.4526699999999999      36.741417350000006
   247   0   1   0.0      7.4603029999999997      14.271748000000001      34.615831350000001
   248   0   1   0.0      8.9212589999999992               15.000233      34.573933350000004
   249   0   3   0.0      8.4464129999999997               14.120531      34.546282349999998
   250   0   1   0.0      11.326121000000001      13.357499000000001      16.730949349999999
   251   0   1   0.0      12.087120000000001               14.473352      17.648876349999998
   252   0   3   0.0      11.201826000000001               14.177232      17.290150349999998
   253   0   1   0.0      2.7681390000000001               22.425538      28.701533350000002
   254   0   1   0.0      1.3341510000000001               21.656409      28.839206349999994
   255   0   3   0.0      1.8187949999999999      22.515768000000001      29.002731350000001
   256   0   1   0.0      9.6989830000000001      14.412750000000001      29.459136349999998
   257   0   1   0.0      10.154336000000001      15.794556999999999      30.200823349999997
   258   0   3   0.0      9.4691329999999994      15.066414999999999             30.18025235
   259   0   1   0.0               14.123414      4.1361049999999997             12.19830335
   260   0   1   0.0               12.836121      4.9695450000000001      11.636973349999998
   261   0   3   0.0               13.156062      4.0759069999999999      11.951882349999998
   262   0   1   0.0                4.989115               20.523242      14.955251349999998
   263   0   1   0.0      3.3964639999999999      20.716360999999999      15.260214349999998
   264   0   3   0.0      4.2623629999999997               21.193009      15.108090349999998
   265   0   1   0.0      8.5933340000000005      22.394667999999999      11.744550349999997
   266   0   1   0.0      9.8885570000000005               21.652987      11.081870349999999
   267   0   3   0.0      9.2279590000000002      22.395672000000001      10.971655349999999
   268   0   1   0.0      3.1569060000000002               20.844828      23.414469349999997
   269   0   1   0.0      4.1413729999999997      22.092279999999999      23.038271349999999
   270   0   3   0.0                3.256856      21.839746999999999      23.430667349999997
   271   0   1   0.0      3.6297649999999999                14.22255      28.299752350000002
   272   0   1   0.0      2.9079440000000001      12.766334000000001      28.458635349999998
   273   0   3   0.0                3.782556               13.234802      28.333300349999998
   274   0   1   0.0      2.0983010000000002               18.934683      34.807048350000002
   275   0   1   0.0      1.6059680000000001      19.420338000000001             36.28643435
   276   0   3   0.0                1.404838      18.813545000000001      35.517366350000003
   277   0   1   0.0                4.890301      11.178877999999999      12.834601349999996
   278   0   1   0.0      6.3233100000000002      11.777939999999999      13.339026349999997
   279   0   3   0.0      5.3303969999999996      11.842985000000001      13.439079349999997
   280   0   1   0.0      3.8181370000000001      16.781064000000001      15.155695349999998
   281   0   1   0.0      3.7458459999999998      17.603902999999999      13.746956349999998
   282   0   3   0.0                4.153206      16.819141999999999      14.214209349999997
   283   0   1   0.0               17.853513      3.0494849999999998      8.6484873499999999
   284   0   1   0.0      16.925892999999999      4.3927420000000001      8.6934493499999981
   285   0   3   0.0               17.864169      4.0473150000000002      8.7143603499999998
   286   0   1   0.0               15.577696                9.754562      19.152783349999996
   287   0   1   0.0      16.895395000000001      9.4867050000000006      20.079475349999999
   288   0   3   0.0      16.228411999999999      9.0629989999999996      19.466511349999998
   289   0   1   0.0      3.9150830000000001      2.2983180000000001      10.391857349999999
   290   0   1   0.0      4.6774709999999997                2.895286      9.0768553499999989
   291   0   3   0.0      3.8643160000000001                2.410679      9.3994293499999984
   292   0   1   0.0               14.936821      11.327965000000001      29.597960349999997
   293   0   1   0.0      16.066078999999998      12.229957000000001      28.837681349999993
   294   0   3   0.0      15.249917999999999      12.259925000000001      29.414830349999999
   295   0   1   0.0      5.6155790000000003      9.1487490000000005      33.212945349999998
   296   0   1   0.0      5.1956980000000001               10.684203      32.848370350000003
   297   0   3   0.0      5.6748979999999998               10.103011      33.506170350000005
   298   0   1   0.0               16.751659      6.3603579999999997      10.283922349999997
   299   0   1   0.0      18.125271000000001                5.509163      10.519495349999996
   300   0   3   0.0      17.127534000000001      5.4543910000000002      10.479009349999998
   301   0   1   0.0      9.1233559999999994      16.494136999999998      18.573008349999999
   302   0   1   0.0      7.9964250000000003               15.327477      18.762130349999996
   303   0   3   0.0      8.4461639999999996      16.106757000000002      19.198679349999995
   304   0   1   0.0      11.844836000000001      4.3395130000000002      33.304251350000001
   305   0   1   0.0               12.356792      5.8851449999999996      33.429782349999996
   306   0   3   0.0               11.731066      5.1994819999999997      33.801871349999999
   307   0   1   0.0      6.1081310000000002      8.3726570000000002      19.185915349999998
   308   0   1   0.0      5.4927200000000003      7.6768910000000004             20.52905135
   309   0   3   0.0      5.9769139999999998      8.4757370000000005      20.171954349999996
   310   0   1   0.0               12.740961      5.6128859999999996      36.114570350000001
   311   0   1   0.0      13.518732999999999      4.1824159999999999      35.989420350000003
   312   0   3   0.0               13.637559      5.1718830000000002      36.072802350000003
   313   0   1   0.0      11.906167999999999                 2.76972      35.211202350000001
   314   0   1   0.0      10.669617000000001      3.7998340000000002      34.934358349999997
   315   0   3   0.0               11.604108      3.7204700000000002      35.281555350000005
   316   0   1   0.0      3.5113829999999999      16.039463999999999      23.973666349999998
   317   0   1   0.0      3.3875670000000002      16.823803000000002      22.546670349999996
   318   0   3   0.0      3.0757729999999999      16.033003000000001      23.073489349999999
   319   0   1   0.0      16.339881999999999      20.488472999999999      17.610587349999999
   320   0   1   0.0      16.972007000000001      19.479897000000001      18.728634349999997